9
MD Step: 0   Time: 0.0000
X 0.0000 0.0000 0.0000
X 0.0000 1.1225 0.0000
X 0.0000 2.2449 0.0000
X 1.1225 0.0000 0.0000
X 1.1225 1.1225 0.0000
X 1.1225 2.2449 0.0000
X 2.2449 0.0000 0.0000
X 2.2449 1.1225 0.0000
X 2.2449 2.2449 0.0000
9
MD Step: 500   Time: 5.0000
X 0.0232 0.0232 0.0000
X 0.0084 1.1225 0.0000
X 0.0232 2.2217 0.0000
X 1.1225 0.0084 0.0000
X 1.1225 1.1225 0.0000
X 1.1225 2.2365 0.0000
X 2.2217 0.0232 0.0000
X 2.2365 1.1225 0.0000
X 2.2217 2.2217 0.0000
9
MD Step: 1000   Time: 10.0000
X 0.0008 0.0008 0.0000
X 0.0307 1.1225 0.0000
X 0.0008 2.2441 0.0000
X 1.1225 0.0307 0.0000
X 1.1225 1.1225 0.0000
X 1.1225 2.2143 0.0000
X 2.2441 0.0008 0.0000
X 2.2143 1.1225 0.0000
X 2.2441 2.2441 0.0000
9
MD Step: 1500   Time: 15.0000
X -0.4754 0.4392 0.0000
X 0.4361 1.0517 0.0000
X -0.1741 1.9868 0.0000
X 1.0634 0.0516 0.0000
X 1.5322 1.1012 0.0000
X 0.8969 2.0325 0.0000
X 2.1532 0.1672 0.0000
X 2.6540 1.1308 0.0000
X 2.0159 2.1411 0.0000
9
MD Step: 2000   Time: 20.0000
X -0.2925 0.3592 0.0000
X 0.4626 1.4278 0.0000
X -0.6951 1.3907 0.0000
X 0.8481 0.3395 0.0000
X 1.6102 1.1519 0.0000
X 1.2358 2.2007 0.0000
X 1.9716 0.1529 0.0000
X 2.6435 1.0425 0.0000
X 2.3179 2.0368 0.0000
9
MD Step: 2500   Time: 25.0000
X -0.1957 0.1161 0.0000
X 0.3677 1.2012 0.0000
X -0.1456 2.1078 0.0000
X 0.8788 0.1129 0.0000
X 1.4448 1.0818 0.0000
X 0.9545 2.1487 0.0000
X 2.0512 0.1125 0.0000
X 2.6839 1.0983 0.0000
X 2.0625 2.1227 0.0000
9
MD Step: 3000   Time: 30.0000
X -0.2634 0.2974 0.0000
X 0.3997 1.1555 0.0000
X -0.2122 2.0088 0.0000
X 0.8209 0.1300 0.0000
X 1.5520 1.0266 0.0000
X 0.9117 2.1306 0.0000
X 2.1897 0.1253 0.0000
X 2.6885 1.2140 0.0000
X 2.0153 2.0141 0.0000
9
MD Step: 3500   Time: 35.0000
X -0.2048 0.1972 0.0000
X 0.4391 1.1693 0.0000
X -0.1736 2.1259 0.0000
X 0.8682 -0.0102 0.0000
X 1.5045 1.1122 0.0000
X 0.9314 2.1217 0.0000
X 2.0637 0.0688 0.0000
X 2.6363 1.1913 0.0000
X 2.0375 2.1260 0.0000
9
MD Step: 4000   Time: 40.0000
X -0.2744 0.1974 0.0000
X 0.3954 1.0408 0.0000
X -0.2034 2.0224 0.0000
X 0.9482 0.1346 0.0000
X 1.4962 1.1961 0.0000
X 0.8888 2.1293 0.0000
X 2.0633 0.1861 0.0000
X 2.6589 1.1243 0.0000
X 2.1292 2.0712 0.0000
9
MD Step: 4500   Time: 45.0000
X -0.1584 0.1720 0.0000
X 0.3200 1.2038 0.0000
X -0.2786 2.1161 0.0000
X 1.0609 0.0652 0.0000
X 1.4255 1.1062 0.0000
X 0.8718 2.1658 0.0000
X 2.1606 0.0826 0.0000
X 2.5986 1.0919 0.0000
X 2.1018 2.0985 0.0000
9
MD Step: 5000   Time: 50.0000
X -0.2054 0.2318 0.0000
X 0.4294 1.0660 0.0000
X -0.2020 1.9957 0.0000
X 0.9311 0.1333 0.0000
X 1.4733 1.1555 0.0000
X 0.9233 2.1335 0.0000
X 2.1735 0.0076 0.0000
X 2.5494 1.2221 0.0000
X 2.0296 2.1567 0.0000
9
MD Step: 5500   Time: 55.0000
X -0.2341 0.1280 0.0000
X 0.4384 1.0563 0.0000
X -0.3324 1.9831 0.0000
X 1.0486 0.1586 0.0000
X 1.4912 1.2518 0.0000
X 0.8426 2.1650 0.0000
X 2.0960 0.1088 0.0000
X 2.6179 1.1535 0.0000
X 2.1340 2.0971 0.0000
9
MD Step: 6000   Time: 60.0000
X -0.7887 0.7852 0.0000
X 0.4937 0.8681 0.0000
X -0.1979 1.7296 0.0000
X 1.2107 0.0327 0.0000
X 1.5467 1.1013 0.0000
X 0.8588 2.0308 0.0000
X 2.3733 0.2145 0.0000
X 2.6450 1.2435 0.0000
X 1.9606 2.0966 0.0000
9
MD Step: 6500   Time: 65.0000
X -0.5840 0.6630 0.0000
X 0.5208 1.0513 0.0000
X -0.3303 1.7510 0.0000
X 1.1059 0.0765 0.0000
X 1.6515 1.0985 0.0000
X 0.7939 2.0402 0.0000
X 2.2359 0.0852 0.0000
X 2.7836 1.1869 0.0000
X 1.9249 2.1496 0.0000
9
MD Step: 7000   Time: 70.0000
X -0.5984 0.6728 0.0000
X 0.4460 0.8688 0.0000
X -0.2518 1.8473 0.0000
X 1.2019 0.0445 0.0000
X 1.5313 1.1458 0.0000
X 0.8271 2.0316 0.0000
X 2.3116 0.1949 0.0000
X 2.6621 1.2234 0.0000
X 1.9723 2.0730 0.0000
9
MD Step: 7500   Time: 75.0000
X -0.6347 0.6565 0.0000
X 0.4584 0.9633 0.0000
X -0.3017 1.7984 0.0000
X 1.0914 0.0026 0.0000
X 1.5857 1.0718 0.0000
X 0.8688 1.9566 0.0000
X 2.3454 0.2834 0.0000
X 2.6927 1.2443 0.0000
X 1.9962 2.1252 0.0000
9
MD Step: 8000   Time: 80.0000
X -0.6682 0.8093 0.0000
X 0.4361 0.9075 0.0000
X -0.2723 1.8001 0.0000
X 1.2128 0.0534 0.0000
X 1.5754 1.0520 0.0000
X 0.8288 1.9080 0.0000
X 2.3454 0.1836 0.0000
X 2.7356 1.2343 0.0000
X 1.9087 2.1538 0.0000
9
MD Step: 8500   Time: 85.0000
X -0.1873 0.2298 0.0000
X 0.4003 1.2359 0.0000
X -0.6369 1.6104 0.0000
X 0.9031 0.2135 0.0000
X 1.5299 1.2186 0.0000
X 1.1118 2.2378 0.0000
X 2.1141 0.1711 0.0000
X 2.6611 1.0805 0.0000
X 2.2060 2.1045 0.0000
9
MD Step: 9000   Time: 90.0000
X -0.1872 -0.0338 0.0000
X 0.4201 1.0917 0.0000
X -0.1694 2.0569 0.0000
X 0.9666 0.0649 0.0000
X 1.4989 1.1439 0.0000
X 0.9334 2.1499 0.0000
X 2.0052 0.2327 0.0000
X 2.5506 1.1998 0.0000
X 2.0840 2.1962 0.0000
9
MD Step: 9500   Time: 95.0000
X 0.8988 -0.7990 0.0000
X 0.1873 1.4956 0.0000
X 0.0039 2.5771 0.0000
X 0.5466 0.2959 0.0000
X 1.2704 1.2069 0.0000
X 1.0353 2.2480 0.0000
X 1.6346 0.1310 0.0000
X 2.3894 0.9749 0.0000
X 2.1359 1.9717 0.0000
9
MD Step: 10000   Time: 100.0000
X 0.9287 -0.7040 0.0000
X 0.1881 1.4521 0.0000
X -0.1414 2.5474 0.0000
X 0.5457 0.3489 0.0000
X 1.3018 1.2116 0.0000
X 1.0051 2.2768 0.0000
X 1.6125 0.1139 0.0000
X 2.4433 0.9202 0.0000
X 2.2185 1.9353 0.0000
9
MD Step: 10500   Time: 105.0000
X 0.9254 -0.7297 0.0000
X 0.3580 1.5060 0.0000
X -0.0777 2.4826 0.0000
X 0.5208 0.3810 0.0000
X 1.3239 1.1967 0.0000
X 0.9972 2.3172 0.0000
X 1.6157 0.0946 0.0000
X 2.3488 0.9002 0.0000
X 2.0900 1.9536 0.0000
9
MD Step: 11000   Time: 110.0000
X 0.9424 -0.7753 0.0000
X 0.2446 1.3997 0.0000
X -0.1764 2.5375 0.0000
X 0.4879 0.3298 0.0000
X 1.3363 1.1847 0.0000
X 1.0653 2.4436 0.0000
X 1.6451 0.1328 0.0000
X 2.4248 0.8990 0.0000
X 2.1322 1.9503 0.0000
9
MD Step: 11500   Time: 115.0000
X 0.6987 -0.7468 0.0000
X 0.3228 1.4377 0.0000
X -0.1681 2.4039 0.0000
X 0.5720 0.3411 0.0000
X 1.3631 1.1674 0.0000
X 0.9915 2.2976 0.0000
X 1.7059 0.1602 0.0000
X 2.4496 0.9655 0.0000
X 2.1668 2.0756 0.0000
9
MD Step: 12000   Time: 120.0000
X 0.8343 -0.6900 0.0000
X 0.1684 1.4638 0.0000
X -0.1636 2.5542 0.0000
X 0.6561 0.3423 0.0000
X 1.3134 1.1635 0.0000
X 1.0312 2.2411 0.0000
X 1.6954 0.1344 0.0000
X 2.4537 0.9502 0.0000
X 2.1132 1.9426 0.0000
9
MD Step: 12500   Time: 125.0000
X 0.9525 -0.7673 0.0000
X 0.1869 1.4614 0.0000
X -0.1300 2.5799 0.0000
X 0.4910 0.3319 0.0000
X 1.3274 1.2060 0.0000
X 0.9938 2.3637 0.0000
X 1.6659 0.1350 0.0000
X 2.5007 0.8209 0.0000
X 2.1139 1.9705 0.0000
9
MD Step: 13000   Time: 130.0000
X 0.9676 -0.7227 0.0000
X 0.2581 1.4501 0.0000
X -0.1277 2.5676 0.0000
X 0.5234 0.3035 0.0000
X 1.3109 1.1303 0.0000
X 1.0596 2.3580 0.0000
X 1.6533 0.0620 0.0000
X 2.3635 0.8830 0.0000
X 2.0934 2.0703 0.0000
9
MD Step: 13500   Time: 135.0000
X 0.8466 -0.6985 0.0000
X 0.2600 1.4442 0.0000
X -0.1321 2.4981 0.0000
X 0.4662 0.3690 0.0000
X 1.3233 1.1324 0.0000
X 1.0121 2.2479 0.0000
X 1.7717 0.1278 0.0000
X 2.4553 1.0034 0.0000
X 2.0992 1.9778 0.0000
9
MD Step: 14000   Time: 140.0000
X 0.9667 -0.6958 0.0000
X 0.1544 1.4409 0.0000
X -0.1237 2.5293 0.0000
X 0.5203 0.2978 0.0000
X 1.2428 1.2108 0.0000
X 1.0196 2.3100 0.0000
X 1.7190 0.0745 0.0000
X 2.4521 0.9344 0.0000
X 2.1510 2.0001 0.0000
9
MD Step: 14500   Time: 145.0000
X 0.9075 -0.7276 0.0000
X 0.2126 1.4006 0.0000
X -0.1022 2.5686 0.0000
X 0.5278 0.3656 0.0000
X 1.2437 1.1772 0.0000
X 0.9861 2.2664 0.0000
X 1.6892 0.1332 0.0000
X 2.5717 0.9601 0.0000
X 2.0658 1.9580 0.0000
9
MD Step: 15000   Time: 150.0000
X 0.9306 -0.7592 0.0000
X 0.2838 1.4230 0.0000
X -0.1760 2.4364 0.0000
X 0.4665 0.3784 0.0000
X 1.3731 1.2107 0.0000
X 0.9891 2.2702 0.0000
X 1.5764 0.1968 0.0000
X 2.4792 0.9043 0.0000
X 2.1796 2.0416 0.0000
9
MD Step: 15500   Time: 155.0000
X 0.8447 -0.7623 0.0000
X 0.1331 1.4435 0.0000
X -0.0117 2.4812 0.0000
X 0.5435 0.3955 0.0000
X 1.2989 1.1485 0.0000
X 1.0163 2.2303 0.0000
X 1.7526 0.0754 0.0000
X 2.4076 0.9875 0.0000
X 2.1172 2.1026 0.0000
9
MD Step: 16000   Time: 160.0000
X 0.6388 -0.7343 0.0000
X 0.3412 1.4436 0.0000
X -0.1614 2.5075 0.0000
X 0.6093 0.3347 0.0000
X 1.4139 1.2102 0.0000
X 0.9917 2.2947 0.0000
X 1.7503 0.0501 0.0000
X 2.4788 0.9367 0.0000
X 2.0396 2.0589 0.0000
9
MD Step: 16500   Time: 165.0000
X 0.6791 -0.6326 0.0000
X 0.4252 1.7629 0.0000
X -0.6332 1.8278 0.0000
X 0.4979 0.6203 0.0000
X 1.4069 1.3124 0.0000
X 1.3386 2.4436 0.0000
X 1.5469 0.1187 0.0000
X 2.4616 0.7344 0.0000
X 2.3792 1.9146 0.0000
9
MD Step: 17000   Time: 170.0000
X 0.1907 -0.0682 0.0000
X 0.4223 1.8699 0.0000
X -0.1447 0.9443 0.0000
X 0.8996 0.7988 0.0000
X 1.5524 1.7709 0.0000
X 1.1013 2.7657 0.0000
X 1.4316 -0.2437 0.0000
X 1.9818 0.6848 0.0000
X 2.6672 1.5796 0.0000
9
MD Step: 17500   Time: 175.0000
X 0.2462 0.0196 0.0000
X 0.4227 1.8281 0.0000
X -0.3225 0.9759 0.0000
X 0.9323 0.8231 0.0000
X 1.6435 1.6873 0.0000
X 1.0477 2.7903 0.0000
X 1.3797 -0.2770 0.0000
X 2.0296 0.6472 0.0000
X 2.7230 1.6078 0.0000
9
MD Step: 18000   Time: 180.0000
X 0.1187 -0.1110 0.0000
X 0.4494 1.8726 0.0000
X -0.2539 0.9638 0.0000
X 0.8159 0.8014 0.0000
X 1.5938 1.6273 0.0000
X 1.2116 2.6873 0.0000
X 1.2990 -0.2604 0.0000
X 2.1708 0.6645 0.0000
X 2.6969 1.8566 0.0000
9
MD Step: 18500   Time: 185.0000
X 0.2927 -0.1910 0.0000
X 0.2223 1.7817 0.0000
X -0.2455 0.7413 0.0000
X 0.7742 0.8453 0.0000
X 1.3921 1.7468 0.0000
X 1.8477 2.7627 0.0000
X 1.3943 -0.2690 0.0000
X 1.8947 0.8193 0.0000
X 2.5296 1.8651 0.0000
9
MD Step: 19000   Time: 190.0000
X 0.2647 -0.1958 0.0000
X 0.1844 1.8833 0.0000
X -0.2362 0.8465 0.0000
X 0.8653 0.7092 0.0000
X 1.3694 1.7253 0.0000
X 1.7543 2.8041 0.0000
X 1.4693 -0.2921 0.0000
X 1.9844 0.7372 0.0000
X 2.4466 1.8844 0.0000
9
MD Step: 19500   Time: 195.0000
X 0.3247 -0.1412 0.0000
X 0.1414 1.6778 0.0000
X -0.3964 0.7193 0.0000
X 0.8138 0.8139 0.0000
X 1.2636 1.7501 0.0000
X 1.9849 2.7516 0.0000
X 1.4621 -0.1244 0.0000
X 1.9663 0.8202 0.0000
X 2.5417 1.8348 0.0000
9
MD Step: 20000   Time: 200.0000
X 0.3019 -0.2462 0.0000
X 0.1568 1.7001 0.0000
X -0.3115 0.7389 0.0000
X 0.8009 0.8095 0.0000
X 1.3231 1.8432 0.0000
X 1.9268 2.8105 0.0000
X 1.3953 -0.1211 0.0000
X 1.9866 0.7428 0.0000
X 2.5222 1.8244 0.0000
9
MD Step: 20500   Time: 205.0000
X 0.1551 0.0915 0.0000
X 0.9361 1.8302 0.0000
X 0.0754 1.2229 0.0000
X 1.0498 0.6635 0.0000
X 1.9374 1.3141 0.0000
X 0.9476 2.9641 0.0000
X 1.1175 -0.5399 0.0000
X 2.0393 0.1854 0.0000
X 1.8439 2.3703 0.0000
9
MD Step: 21000   Time: 210.0000
X 0.1205 -0.0015 0.0000
X 0.9577 1.9032 0.0000
X 0.0034 1.2111 0.0000
X 0.9909 0.6909 0.0000
X 1.9391 1.3027 0.0000
X 0.9097 2.9739 0.0000
X 1.1630 -0.5854 0.0000
X 2.0415 0.2148 0.0000
X 1.9763 2.3924 0.0000
9
MD Step: 21500   Time: 215.0000
X 0.0462 0.1210 0.0000
X 1.1123 1.8016 0.0000
X 0.0532 1.2824 0.0000
X 1.0422 0.6551 0.0000
X 2.1183 1.1881 0.0000
X 0.7527 2.8629 0.0000
X 1.0414 -0.4822 0.0000
X 2.0720 -0.0108 0.0000
X 1.8639 2.6840 0.0000
9
MD Step: 22000   Time: 220.0000
X -0.0581 0.1648 0.0000
X 0.9986 1.8337 0.0000
X 0.0120 1.2513 0.0000
X 0.9522 0.7146 0.0000
X 1.9330 1.2038 0.0000
X 0.8694 2.9101 0.0000
X 1.1856 -0.3761 0.0000
X 2.2450 0.0380 0.0000
X 1.9644 2.3621 0.0000
9
MD Step: 22500   Time: 225.0000
X 0.1415 0.0520 0.0000
X 0.9775 1.7882 0.0000
X -0.0044 1.1545 0.0000
X 1.0192 0.6637 0.0000
X 1.9748 1.3213 0.0000
X 1.0142 3.0662 0.0000
X 1.0766 -0.5230 0.0000
X 1.9715 0.0951 0.0000
X 1.9312 2.4841 0.0000
9
MD Step: 23000   Time: 230.0000
X 0.0589 -0.0297 0.0000
X 0.9709 1.8609 0.0000
X 0.0338 1.2385 0.0000
X 1.0211 0.7104 0.0000
X 2.0428 1.2519 0.0000
X 0.8761 2.9535 0.0000
X 1.0603 -0.4141 0.0000
X 2.0277 0.1107 0.0000
X 2.0107 2.4201 0.0000
9
MD Step: 23500   Time: 235.0000
X 0.0818 0.1621 0.0000
X 1.0776 1.7571 0.0000
X 0.1242 1.3608 0.0000
X 1.0124 0.6653 0.0000
X 2.0019 1.1860 0.0000
X 0.7426 2.8125 0.0000
X 1.0452 -0.4124 0.0000
X 2.1180 0.0877 0.0000
X 1.8983 2.4830 0.0000
9
MD Step: 24000   Time: 240.0000
X 0.0871 0.0294 0.0000
X 1.0367 1.8332 0.0000
X -0.0612 1.1312 0.0000
X 0.9755 0.7441 0.0000
X 1.9706 1.2580 0.0000
X 0.9940 2.8941 0.0000
X 1.0737 -0.4212 0.0000
X 1.9799 0.1534 0.0000
X 2.0460 2.4800 0.0000
9
MD Step: 24500   Time: 245.0000
X 0.0578 0.0507 0.0000
X 0.8868 1.7514 0.0000
X 0.0101 1.1363 0.0000
X 0.9836 0.6968 0.0000
X 1.8748 1.3591 0.0000
X 1.0291 2.8951 0.0000
X 1.0073 -0.4715 0.0000
X 2.0356 0.2216 0.0000
X 2.2171 2.4626 0.0000
9
MD Step: 25000   Time: 250.0000
X 0.0507 0.0265 0.0000
X 0.9723 1.9005 0.0000
X 0.0006 1.2824 0.0000
X 0.9258 0.6333 0.0000
X 1.8591 1.2991 0.0000
X 1.0832 2.9854 0.0000
X 1.1772 -0.5903 0.0000
X 2.0074 0.1913 0.0000
X 2.0258 2.3739 0.0000
9
MD Step: 25500   Time: 255.0000
X 0.0240 0.0449 0.0000
X 0.9913 1.7573 0.0000
X 0.0468 1.2382 0.0000
X 1.0282 0.7152 0.0000
X 2.0487 1.2725 0.0000
X 0.9521 2.9680 0.0000
X 1.1005 -0.4261 0.0000
X 2.0392 0.1813 0.0000
X 1.8713 2.3508 0.0000
9
MD Step: 26000   Time: 260.0000
X 0.0656 0.2514 0.0000
X 1.1110 1.7499 0.0000
X 0.0655 1.3492 0.0000
X 1.0990 0.6576 0.0000
X 2.1300 1.2109 0.0000
X 0.6082 2.7466 0.0000
X 0.9411 -0.4474 0.0000
X 2.1092 0.1168 0.0000
X 1.9726 2.4671 0.0000
9
MD Step: 26500   Time: 265.0000
X 0.1001 0.1223 0.0000
X 1.0428 1.7652 0.0000
X -0.0385 1.2452 0.0000
X 1.1067 0.7049 0.0000
X 2.1058 1.3753 0.0000
X 0.8076 2.9036 0.0000
X 1.0063 -0.5668 0.0000
X 2.0436 0.1131 0.0000
X 1.9278 2.4394 0.0000
9
MD Step: 27000   Time: 270.0000
X 0.0584 0.0767 0.0000
X 1.0125 1.7633 0.0000
X 0.0507 1.2167 0.0000
X 1.1197 0.6900 0.0000
X 2.0508 1.3192 0.0000
X 0.9050 2.8975 0.0000
X 0.9388 -0.5116 0.0000
X 2.0833 0.2135 0.0000
X 1.8830 2.4369 0.0000
9
MD Step: 27500   Time: 275.0000
X 0.0711 0.0050 0.0000
X 1.0855 1.8281 0.0000
X 0.0314 1.1881 0.0000
X 1.0442 0.6435 0.0000
X 2.0079 1.2891 0.0000
X 0.8044 2.9528 0.0000
X 1.0333 -0.4001 0.0000
X 2.0281 0.1216 0.0000
X 1.9964 2.4741 0.0000
9
MD Step: 28000   Time: 280.0000
X 0.0660 0.0305 0.0000
X 0.9761 1.8078 0.0000
X -0.0965 1.1539 0.0000
X 0.9769 0.6466 0.0000
X 1.9947 1.3427 0.0000
X 1.0472 2.9452 0.0000
X 1.1160 -0.5326 0.0000
X 1.9869 0.1812 0.0000
X 2.0349 2.5269 0.0000
9
MD Step: 28500   Time: 285.0000
X 0.0680 0.0660 0.0000
X 0.9479 1.8586 0.0000
X -0.0553 1.1366 0.0000
X 1.0374 0.7419 0.0000
X 2.0018 1.2420 0.0000
X 0.8953 2.9590 0.0000
X 1.0497 -0.3939 0.0000
X 2.1150 0.1417 0.0000
X 2.0423 2.3502 0.0000
9
MD Step: 29000   Time: 290.0000
X 0.0231 0.0223 0.0000
X 1.0098 1.8211 0.0000
X 0.0388 1.2140 0.0000
X 1.0584 0.6765 0.0000
X 2.0312 1.2777 0.0000
X 0.9484 3.0122 0.0000
X 1.0414 -0.5367 0.0000
X 2.0318 0.1596 0.0000
X 1.9194 2.4554 0.0000
9
MD Step: 29500   Time: 295.0000
X 0.1030 0.0776 0.0000
X 0.9488 1.7985 0.0000
X 0.0377 1.1663 0.0000
X 1.0590 0.7297 0.0000
X 1.9789 1.3050 0.0000
X 0.9608 3.0177 0.0000
X 1.0942 -0.5648 0.0000
X 1.9567 0.1391 0.0000
X 1.9630 2.4330 0.0000
9
MD Step: 30000   Time: 300.0000
X 0.1595 0.0400 0.0000
X 0.9492 1.8091 0.0000
X -0.0430 1.1890 0.0000
X 1.0517 0.7209 0.0000
X 2.0100 1.2812 0.0000
X 1.0316 3.1428 0.0000
X 1.1266 -0.5810 0.0000
X 1.9224 0.1726 0.0000
X 1.8940 2.3275 0.0000
9
MD Step: 30500   Time: 305.0000
X 0.1089 0.1985 0.0000
X 0.9868 1.8091 0.0000
X -0.0300 1.2984 0.0000
X 1.0996 0.7138 0.0000
X 2.0274 1.2340 0.0000
X 0.7534 2.8963 0.0000
X 1.1175 -0.4176 0.0000
X 2.1125 -0.0342 0.0000
X 1.9261 2.4039 0.0000
9
MD Step: 31000   Time: 310.0000
X 0.0208 0.1791 0.0000
X 1.0368 1.7301 0.0000
X 0.0041 1.2812 0.0000
X 1.0411 0.6636 0.0000
X 2.1034 1.3497 0.0000
X 0.8301 2.7586 0.0000
X 1.0092 -0.5020 0.0000
X 2.0845 0.1871 0.0000
X 1.9722 2.4548 0.0000
9
MD Step: 31500   Time: 315.0000
X 0.0842 -0.0014 0.0000
X 0.9798 1.7777 0.0000
X -0.0290 1.1463 0.0000
X 0.9795 0.7142 0.0000
X 1.9538 1.3248 0.0000
X 1.0210 2.9272 0.0000
X 1.0955 -0.3983 0.0000
X 1.9858 0.1994 0.0000
X 2.0317 2.4121 0.0000
9
MD Step: 32000   Time: 320.0000
X 0.0010 0.2759 0.0000
X 1.2165 1.7878 0.0000
X 0.1679 1.4427 0.0000
X 1.0366 0.7293 0.0000
X 2.1883 1.2420 0.0000
X 0.2924 2.5640 0.0000
X 1.0355 -0.4351 0.0000
X 1.9778 0.1433 0.0000
X 2.1862 2.3523 0.0000
9
MD Step: 32500   Time: 325.0000
X -0.0449 0.2601 0.0000
X 1.1823 2.0051 0.0000
X 0.1673 1.3450 0.0000
X 1.1244 0.7509 0.0000
X 2.1292 1.2101 0.0000
X 0.1751 2.4862 0.0000
X 0.9387 -0.3684 0.0000
X 1.9867 0.1276 0.0000
X 2.4434 2.2855 0.0000
9
MD Step: 33000   Time: 330.0000
X 0.0322 0.2700 0.0000
X 1.2026 1.8637 0.0000
X 0.1308 1.4667 0.0000
X 1.1553 0.7733 0.0000
X 2.1187 1.2407 0.0000
X 0.3935 2.5317 0.0000
X 0.9087 -0.4170 0.0000
X 1.9795 0.0279 0.0000
X 2.1808 2.3452 0.0000
9
MD Step: 33500   Time: 335.0000
X 0.0668 0.2903 0.0000
X 1.2115 1.7754 0.0000
X 0.1924 1.4038 0.0000
X 1.0913 0.7651 0.0000
X 2.1454 1.2589 0.0000
X 0.2768 2.5794 0.0000
X 0.8865 -0.3837 0.0000
X 2.0088 0.0839 0.0000
X 2.2227 2.3291 0.0000
9
MD Step: 34000   Time: 340.0000
X -0.0241 0.2272 0.0000
X 1.0692 1.8018 0.0000
X 0.0594 1.3282 0.0000
X 1.0918 0.6182 0.0000
X 2.0408 1.2027 0.0000
X 0.8066 2.8674 0.0000
X 0.9601 -0.5405 0.0000
X 2.1672 0.0798 0.0000
X 1.9313 2.5174 0.0000
9
MD Step: 34500   Time: 345.0000
X 0.0450 0.0540 0.0000
X 0.9106 1.8826 0.0000
X 0.1323 1.1324 0.0000
X 1.0696 0.6299 0.0000
X 1.8577 1.3491 0.0000
X 1.0671 3.0937 0.0000
X 1.0014 -0.5630 0.0000
X 2.0659 0.1050 0.0000
X 1.9527 2.4183 0.0000
9
MD Step: 35000   Time: 350.0000
X 0.0367 0.1875 0.0000
X 1.0324 1.8174 0.0000
X 0.0330 1.3058 0.0000
X 0.9966 0.6244 0.0000
X 1.9585 1.2144 0.0000
X 0.9211 2.9823 0.0000
X 1.0665 -0.5016 0.0000
X 2.1010 0.0524 0.0000
X 1.9562 2.4196 0.0000
9
MD Step: 35500   Time: 355.0000
X -0.0071 0.1601 0.0000
X 1.0671 1.7429 0.0000
X 0.0637 1.2749 0.0000
X 1.0063 0.6362 0.0000
X 2.0742 1.2486 0.0000
X 0.8707 2.9122 0.0000
X 1.0178 -0.4921 0.0000
X 2.0868 0.2138 0.0000
X 1.9228 2.4055 0.0000
9
MD Step: 36000   Time: 360.0000
X 0.0796 0.0991 0.0000
X 0.9660 1.8239 0.0000
X 0.0051 1.1546 0.0000
X 1.0175 0.7285 0.0000
X 1.9805 1.2758 0.0000
X 1.0531 2.9784 0.0000
X 1.0603 -0.5314 0.0000
X 1.9830 0.1749 0.0000
X 1.9572 2.3984 0.0000
9
MD Step: 36500   Time: 365.0000
X -0.0189 0.1890 0.0000
X 1.2484 1.9899 0.0000
X 0.0850 1.3906 0.0000
X 1.1440 0.7788 0.0000
X 2.1679 1.1792 0.0000
X 0.2313 2.5497 0.0000
X 0.9433 -0.4024 0.0000
X 1.9520 0.0538 0.0000
X 2.3493 2.3734 0.0000
9
MD Step: 37000   Time: 370.0000
X -0.0528 0.3539 0.0000
X 1.1628 1.8053 0.0000
X 0.1663 1.4558 0.0000
X 1.0288 0.6878 0.0000
X 2.0573 1.2217 0.0000
X 0.3996 2.5306 0.0000
X 1.0144 -0.3859 0.0000
X 2.0511 0.1082 0.0000
X 2.2747 2.3250 0.0000
9
MD Step: 37500   Time: 375.0000
X 0.0565 0.0541 0.0000
X 1.0917 1.8407 0.0000
X 0.0584 1.2736 0.0000
X 0.9852 0.6801 0.0000
X 2.0661 1.2482 0.0000
X 0.7828 2.8682 0.0000
X 1.0167 -0.3878 0.0000
X 1.9754 0.1850 0.0000
X 2.0695 2.3401 0.0000
9
MD Step: 38000   Time: 380.0000
X 0.0201 0.3001 0.0000
X 1.5430 1.8072 0.0000
X -0.0645 1.4868 0.0000
X 1.1008 0.7492 0.0000
X 2.2585 0.9951 0.0000
X 0.6143 2.3806 0.0000
X 0.8973 -0.4353 0.0000
X 1.9731 -0.0480 0.0000
X 1.7595 2.8664 0.0000
9
MD Step: 38500   Time: 385.0000
X -0.0340 0.2491 0.0000
X 1.3366 1.7996 0.0000
X 0.2675 1.5194 0.0000
X 1.1099 0.7344 0.0000
X 2.2117 0.9359 0.0000
X 0.5980 2.5684 0.0000
X 0.8610 -0.3810 0.0000
X 2.0491 -0.1563 0.0000
X 1.7023 2.8328 0.0000
9
MD Step: 39000   Time: 390.0000
X 0.0655 0.3556 0.0000
X 1.3771 1.7835 0.0000
X 0.3452 1.4619 0.0000
X 1.1875 0.6211 0.0000
X 2.2012 1.0782 0.0000
X 0.5784 2.5902 0.0000
X 0.8058 -0.4776 0.0000
X 1.8823 -0.2129 0.0000
X 1.6592 2.9022 0.0000
9
MD Step: 39500   Time: 395.0000
X 0.0052 0.4256 0.0000
X 1.3802 1.7826 0.0000
X 0.2373 1.5030 0.0000
X 1.0694 0.6385 0.0000
X 2.1796 0.8916 0.0000
X 0.6751 2.5690 0.0000
X 0.8994 -0.4889 0.0000
X 2.0006 -0.1718 0.0000
X 1.6553 2.9526 0.0000
9
MD Step: 40000   Time: 400.0000
X -0.0353 0.3500 0.0000
X 1.4490 1.7930 0.0000
X 0.3310 1.4708 0.0000
X 1.1520 0.6682 0.0000
X 2.2011 0.9790 0.0000
X 0.6133 2.5455 0.0000
X 0.7856 -0.4532 0.0000
X 1.9486 -0.1114 0.0000
X 1.6568 2.8603 0.0000
9
MD Step: 40500   Time: 405.0000
X 0.0014 0.4628 0.0000
X 1.4393 1.7430 0.0000
X 0.3733 1.4758 0.0000
X 1.1958 0.6206 0.0000
X 2.3390 0.9693 0.0000
X 0.5368 2.5778 0.0000
X 0.7628 -0.3426 0.0000
X 1.8770 -0.1808 0.0000
X 1.5768 2.7761 0.0000
9
MD Step: 41000   Time: 410.0000
X -0.0580 0.4504 0.0000
X 1.4154 1.7324 0.0000
X 0.3649 1.4554 0.0000
X 1.0812 0.6434 0.0000
X 2.3531 1.0541 0.0000
X 0.5630 2.5800 0.0000
X 0.7091 -0.5455 0.0000
X 2.0132 -0.0798 0.0000
X 1.6603 2.8117 0.0000
9
MD Step: 41500   Time: 415.0000
X -0.0904 0.3263 0.0000
X 1.4985 1.8207 0.0000
X 0.3091 1.4610 0.0000
X 0.9969 0.6238 0.0000
X 2.2238 0.9786 0.0000
X 0.6482 2.5333 0.0000
X 0.8845 -0.5418 0.0000
X 1.9040 -0.0335 0.0000
X 1.7277 2.9338 0.0000
9
MD Step: 42000   Time: 420.0000
X 0.0895 0.3670 0.0000
X 1.3089 1.7327 0.0000
X 0.1557 1.4437 0.0000
X 1.0730 0.6502 0.0000
X 2.1277 1.0585 0.0000
X 0.6567 2.6012 0.0000
X 0.9093 -0.4024 0.0000
X 1.9560 -0.1142 0.0000
X 1.8254 2.7655 0.0000
9
MD Step: 42500   Time: 425.0000
X 0.0178 0.3656 0.0000
X 1.4348 1.7308 0.0000
X 0.3398 1.4577 0.0000
X 1.0463 0.5858 0.0000
X 2.2400 1.0315 0.0000
X 0.6246 2.6444 0.0000
X 0.7782 -0.5201 0.0000
X 1.9250 -0.0351 0.0000
X 1.6958 2.8415 0.0000
9
MD Step: 43000   Time: 430.0000
X 0.1029 0.3133 0.0000
X 1.4529 1.8526 0.0000
X 0.2615 1.4156 0.0000
X 1.1163 0.7317 0.0000
X 2.1682 0.9745 0.0000
X 0.6388 2.6215 0.0000
X 0.8105 -0.5655 0.0000
X 1.8393 -0.1538 0.0000
X 1.7118 2.9123 0.0000
9
MD Step: 43500   Time: 435.0000
X 0.0447 0.4357 0.0000
X 1.4025 1.7388 0.0000
X 0.3086 1.4723 0.0000
X 1.1605 0.6423 0.0000
X 2.2042 0.9765 0.0000
X 0.5749 2.6501 0.0000
X 0.7226 -0.4740 0.0000
X 2.0265 -0.0937 0.0000
X 1.6576 2.7541 0.0000
9
MD Step: 44000   Time: 440.0000
X -0.0551 0.1397 0.0000
X 1.0909 1.7324 0.0000
X 0.0454 1.2350 0.0000
X 0.9673 0.6516 0.0000
X 2.1010 1.3348 0.0000
X 1.0148 2.8533 0.0000
X 0.8391 -0.5150 0.0000
X 2.0313 0.2529 0.0000
X 2.0675 2.4174 0.0000
9
MD Step: 44500   Time: 445.0000
X 0.0420 0.1101 0.0000
X 1.0877 1.7918 0.0000
X -0.0293 1.3419 0.0000
X 1.0331 0.7094 0.0000
X 2.0750 1.2276 0.0000
X 0.9610 2.9147 0.0000
X 0.9710 -0.4208 0.0000
X 1.9336 0.0827 0.0000
X 2.0279 2.3447 0.0000
9
MD Step: 45000   Time: 450.0000
X -0.0312 0.0854 0.0000
X 1.0615 1.7700 0.0000
X 0.0602 1.2056 0.0000
X 0.9958 0.6833 0.0000
X 2.0105 1.3014 0.0000
X 1.0094 2.8758 0.0000
X 0.9353 -0.4137 0.0000
X 1.9584 0.1380 0.0000
X 2.1023 2.4563 0.0000
9
MD Step: 45500   Time: 455.0000
X 0.0117 0.1356 0.0000
X 1.0618 1.8462 0.0000
X 0.0881 1.2249 0.0000
X 1.0246 0.7125 0.0000
X 1.9847 1.2430 0.0000
X 0.9889 2.8930 0.0000
X 0.9098 -0.4119 0.0000
X 1.9518 0.0464 0.0000
X 2.0807 2.4124 0.0000
9
MD Step: 46000   Time: 460.0000
X 0.0907 0.2147 0.0000
X 1.0865 1.8071 0.0000
X 0.1220 1.3401 0.0000
X 1.0722 0.6961 0.0000
X 2.0629 1.1979 0.0000
X 0.8863 2.8899 0.0000
X 0.9050 -0.4506 0.0000
X 1.9087 0.0144 0.0000
X 1.9677 2.3925 0.0000
9
MD Step: 46500   Time: 465.0000
X -0.1117 0.0375 0.0000
X 1.0336 1.9053 0.0000
X -0.0183 1.1106 0.0000
X 0.9926 0.7062 0.0000
X 1.9732 1.2842 0.0000
X 1.1643 3.0184 0.0000
X 0.9809 -0.3892 0.0000
X 1.9643 0.1045 0.0000
X 2.1233 2.3245 0.0000
9
MD Step: 47000   Time: 470.0000
X -0.0129 0.0530 0.0000
X 1.1236 1.8735 0.0000
X -0.0280 1.1468 0.0000
X 0.8944 0.6349 0.0000
X 2.0046 1.2813 0.0000
X 1.2115 3.0485 0.0000
X 0.9242 -0.4921 0.0000
X 1.8949 0.2107 0.0000
X 2.0899 2.3456 0.0000
9
MD Step: 47500   Time: 475.0000
X 0.0514 0.2743 0.0000
X 1.1045 1.7672 0.0000
X 0.0770 1.3561 0.0000
X 1.0126 0.6964 0.0000
X 1.9728 1.1697 0.0000
X 0.9202 2.8835 0.0000
X 0.9511 -0.3925 0.0000
X 1.9146 0.0577 0.0000
X 2.0979 2.2896 0.0000
9
MD Step: 48000   Time: 480.0000
X 0.0131 0.1456 0.0000
X 1.0689 1.8112 0.0000
X 0.0868 1.3743 0.0000
X 0.9395 0.7030 0.0000
X 2.0806 1.1595 0.0000
X 0.9980 2.9214 0.0000
X 0.9048 -0.4339 0.0000
X 1.9926 0.0186 0.0000
X 2.0179 2.4023 0.0000
9
MD Step: 48500   Time: 485.0000
X -0.1671 0.2012 0.0000
X 1.1099 1.7775 0.0000
X 0.1371 1.2485 0.0000
X 1.0299 0.6890 0.0000
X 2.0864 1.2331 0.0000
X 0.9495 2.8698 0.0000
X 0.8231 -0.3657 0.0000
X 2.0592 0.1113 0.0000
X 2.0742 2.3373 0.0000
9
MD Step: 49000   Time: 490.0000
X 0.0375 0.2341 0.0000
X 1.1079 1.7295 0.0000
X 0.1126 1.3830 0.0000
X 1.0168 0.6654 0.0000
X 2.1377 1.2005 0.0000
X 0.9569 3.0231 0.0000
X 0.8653 -0.4425 0.0000
X 1.9270 -0.0447 0.0000
X 1.9403 2.3538 0.0000
9
MD Step: 49500   Time: 495.0000
X -0.0471 0.0858 0.0000
X 1.0317 1.9158 0.0000
X 0.0690 1.2079 0.0000
X 0.9425 0.6644 0.0000
X 1.9487 1.2860 0.0000
X 1.1599 2.9745 0.0000
X 0.9012 -0.5526 0.0000
X 1.9066 0.1668 0.0000
X 2.1898 2.3537 0.0000
9
MD Step: 50000   Time: 500.0000
X -0.0950 0.1439 0.0000
X 1.1208 1.8051 0.0000
X 0.0599 1.4291 0.0000
X 0.9598 0.6694 0.0000
X 1.9787 1.1765 0.0000
X 1.1158 2.9099 0.0000
X 0.9627 -0.4972 0.0000
X 1.9547 0.1182 0.0000
X 2.0446 2.3473 0.0000
9
MD Step: 50500   Time: 505.0000
X -0.0154 0.3094 0.0000
X 1.0352 1.7704 0.0000
X 0.0651 1.3739 0.0000
X 1.0096 0.6808 0.0000
X 2.0039 1.1613 0.0000
X 1.0007 2.8785 0.0000
X 0.9542 -0.4008 0.0000
X 2.0468 -0.0036 0.0000
X 2.0020 2.3323 0.0000
9
MD Step: 51000   Time: 510.0000
X 0.0604 0.1794 0.0000
X 1.0604 1.8289 0.0000
X 0.0429 1.3587 0.0000
X 1.0417 0.7115 0.0000
X 2.0449 1.1473 0.0000
X 1.0587 2.9181 0.0000
X 0.8858 -0.5117 0.0000
X 1.9056 0.0878 0.0000
X 2.0018 2.3822 0.0000
9
MD Step: 51500   Time: 515.0000
X 0.0225 0.0938 0.0000
X 1.0334 1.8093 0.0000
X 0.0005 1.4473 0.0000
X 0.9251 0.6676 0.0000
X 1.9568 1.1847 0.0000
X 1.1221 2.9399 0.0000
X 0.9640 -0.4890 0.0000
X 1.9592 0.0732 0.0000
X 2.1186 2.3754 0.0000
9
MD Step: 52000   Time: 520.0000
X 0.0278 0.2325 0.0000
X 0.9112 1.8615 0.0000
X -0.0467 1.2818 0.0000
X 1.0409 0.7151 0.0000
X 2.1842 1.1973 0.0000
X 1.1670 3.0378 0.0000
X 0.9440 -0.4586 0.0000
X 1.9645 -0.0184 0.0000
X 1.9093 2.2532 0.0000
9
MD Step: 52500   Time: 525.0000
X 0.0485 0.4146 0.0000
X 1.2337 1.9105 0.0000
X 0.1978 1.5099 0.0000
X 1.1006 0.6850 0.0000
X 2.0348 1.0978 0.0000
X 0.4071 2.5720 0.0000
X 0.8326 -0.4001 0.0000
X 1.9091 -0.0139 0.0000
X 2.3380 2.3263 0.0000
9
MD Step: 53000   Time: 530.0000
X -0.0318 0.3209 0.0000
X 1.3473 1.7559 0.0000
X 0.2989 1.4905 0.0000
X 1.0620 0.7188 0.0000
X 2.1857 1.0420 0.0000
X 0.4760 2.6618 0.0000
X 0.8173 -0.4053 0.0000
X 1.8363 -0.0525 0.0000
X 2.1105 2.5702 0.0000
9
MD Step: 53500   Time: 535.0000
X -0.0049 0.3458 0.0000
X 1.2094 1.9052 0.0000
X 0.2269 1.4255 0.0000
X 1.0502 0.7279 0.0000
X 2.0843 1.1007 0.0000
X 0.4343 2.8067 0.0000
X 0.8815 -0.3347 0.0000
X 1.9897 -0.0941 0.0000
X 2.2306 2.2191 0.0000
9
MD Step: 54000   Time: 540.0000
X -0.0884 0.3261 0.0000
X 1.3043 1.9701 0.0000
X 0.3216 1.4324 0.0000
X 1.0933 0.6166 0.0000
X 2.0607 1.1553 0.0000
X 0.3894 2.6713 0.0000
X 0.7053 -0.4579 0.0000
X 1.9752 -0.0335 0.0000
X 2.3408 2.4217 0.0000
9
MD Step: 54500   Time: 545.0000
X -0.0360 0.3413 0.0000
X 1.1934 1.8527 0.0000
X 0.1488 1.5199 0.0000
X 1.0717 0.7854 0.0000
X 2.1803 1.0965 0.0000
X 0.4447 2.5918 0.0000
X 0.8743 -0.3178 0.0000
X 1.9952 0.0146 0.0000
X 2.2299 2.2178 0.0000
9
MD Step: 55000   Time: 550.0000
X -0.1117 0.3998 0.0000
X 1.2155 1.7426 0.0000
X 0.1003 1.5209 0.0000
X 1.0116 0.6836 0.0000
X 2.2045 1.1411 0.0000
X 0.5001 2.6026 0.0000
X 0.9661 -0.3710 0.0000
X 2.0308 0.0152 0.0000
X 2.1850 2.3672 0.0000
9
MD Step: 55500   Time: 555.0000
X 0.0017 0.2495 0.0000
X 1.2115 1.9343 0.0000
X 0.1913 1.4643 0.0000
X 1.0279 0.7028 0.0000
X 2.0161 1.1537 0.0000
X 0.5673 2.7535 0.0000
X 0.9120 -0.4098 0.0000
X 1.9483 0.0404 0.0000
X 2.2261 2.2136 0.0000
9
MD Step: 56000   Time: 560.0000
X -0.0000 0.4013 0.0000
X 1.2296 1.9102 0.0000
X 0.2402 1.4765 0.0000
X 1.0530 0.7735 0.0000
X 2.0803 1.0700 0.0000
X 0.4013 2.6695 0.0000
X 0.8848 -0.3775 0.0000
X 1.9548 0.0307 0.0000
X 2.2582 2.1481 0.0000
9
MD Step: 56500   Time: 565.0000
X 0.0210 0.4031 0.0000
X 1.2282 1.7547 0.0000
X 0.1521 1.6010 0.0000
X 1.0449 0.6993 0.0000
X 2.1020 1.1429 0.0000
X 0.5355 2.6417 0.0000
X 0.8644 -0.5360 0.0000
X 1.9323 0.0475 0.0000
X 2.2216 2.3480 0.0000
9
MD Step: 57000   Time: 570.0000
X 0.0401 0.3738 0.0000
X 1.3185 1.8561 0.0000
X 0.2275 1.4871 0.0000
X 1.1084 0.6618 0.0000
X 2.1160 1.0855 0.0000
X 0.4585 2.6127 0.0000
X 0.7673 -0.3459 0.0000
X 1.8735 -0.1166 0.0000
X 2.1923 2.4877 0.0000
9
MD Step: 57500   Time: 575.0000
X 0.0954 0.2264 0.0000
X 1.2378 1.9034 0.0000
X 0.1945 1.5504 0.0000
X 1.0385 0.7442 0.0000
X 2.0365 1.1538 0.0000
X 0.5174 2.8051 0.0000
X 0.8350 -0.5549 0.0000
X 1.8339 -0.0270 0.0000
X 2.3133 2.3007 0.0000
9
MD Step: 58000   Time: 580.0000
X -0.0491 0.1657 0.0000
X 0.9998 1.8101 0.0000
X -0.0448 1.3094 0.0000
X 0.9778 0.7778 0.0000
X 2.0387 1.2012 0.0000
X 1.0888 2.9397 0.0000
X 0.9535 -0.4009 0.0000
X 2.0807 -0.0031 0.0000
X 2.0568 2.3022 0.0000
9
MD Step: 58500   Time: 585.0000
X -0.0314 0.1189 0.0000
X 1.0863 1.8410 0.0000
X 0.0321 1.2443 0.0000
X 0.9656 0.7055 0.0000
X 2.0383 1.2457 0.0000
X 1.1121 2.9214 0.0000
X 0.9798 -0.5289 0.0000
X 1.9061 0.1510 0.0000
X 2.0132 2.4032 0.0000
9
MD Step: 59000   Time: 590.0000
X -0.0762 0.1731 0.0000
X 1.1593 1.8218 0.0000
X 0.1795 1.2782 0.0000
X 1.0139 0.6177 0.0000
X 2.0093 1.1810 0.0000
X 0.9435 2.9548 0.0000
X 0.9261 -0.5434 0.0000
X 1.8971 0.0104 0.0000
X 2.0496 2.6086 0.0000
9
MD Step: 59500   Time: 595.0000
X 0.0010 0.2796 0.0000
X 1.1962 1.8671 0.0000
X 0.0125 1.5274 0.0000
X 1.0065 0.7436 0.0000
X 2.0841 1.1141 0.0000
X 0.4470 2.6191 0.0000
X 0.9564 -0.2929 0.0000
X 2.0774 0.0079 0.0000
X 2.3210 2.2363 0.0000
9
MD Step: 60000   Time: 600.0000
X -0.0210 0.4749 0.0000
X 1.1888 1.7511 0.0000
X 0.1446 1.5480 0.0000
X 1.1030 0.6489 0.0000
X 2.1785 1.2103 0.0000
X 0.4880 2.5282 0.0000
X 0.8836 -0.4628 0.0000
X 1.9815 0.0381 0.0000
X 2.1552 2.3654 0.0000
9
MD Step: 60500   Time: 605.0000
X 0.0095 0.3676 0.0000
X 1.2649 1.8473 0.0000
X 0.2074 1.4593 0.0000
X 1.0538 0.6945 0.0000
X 2.0450 1.1681 0.0000
X 0.4762 2.5294 0.0000
X 0.8584 -0.3692 0.0000
X 2.0016 0.0864 0.0000
X 2.1854 2.3188 0.0000
9
MD Step: 61000   Time: 610.0000
X 0.0318 0.4227 0.0000
X 1.2237 1.9238 0.0000
X 0.2545 1.4830 0.0000
X 1.1068 0.7160 0.0000
X 2.0824 1.1972 0.0000
X 0.3421 2.5677 0.0000
X 0.8568 -0.4877 0.0000
X 1.9566 -0.0280 0.0000
X 2.2474 2.3076 0.0000
9
MD Step: 61500   Time: 615.0000
X 0.0536 0.2785 0.0000
X 1.2024 1.8224 0.0000
X 0.1150 1.4578 0.0000
X 1.0863 0.7327 0.0000
X 2.1716 1.1362 0.0000