36
MD Step: 0   Time: 0.0000
X 0.0000 0.0000 0.0000
X 0.0000 1.1225 0.0000
X 0.0000 2.2449 0.0000
X 0.0000 3.3674 0.0000
X 0.0000 4.4898 0.0000
X 0.0000 5.6123 0.0000
X 1.1225 0.0000 0.0000
X 1.1225 1.1225 0.0000
X 1.1225 2.2449 0.0000
X 1.1225 3.3674 0.0000
X 1.1225 4.4898 0.0000
X 1.1225 5.6123 0.0000
X 2.2449 0.0000 0.0000
X 2.2449 1.1225 0.0000
X 2.2449 2.2449 0.0000
X 2.2449 3.3674 0.0000
X 2.2449 4.4898 0.0000
X 2.2449 5.6123 0.0000
X 3.3674 0.0000 0.0000
X 3.3674 1.1225 0.0000
X 3.3674 2.2449 0.0000
X 3.3674 3.3674 0.0000
X 3.3674 4.4898 0.0000
X 3.3674 5.6123 0.0000
X 4.4898 0.0000 0.0000
X 4.4898 1.1225 0.0000
X 4.4898 2.2449 0.0000
X 4.4898 3.3674 0.0000
X 4.4898 4.4898 0.0000
X 4.4898 5.6123 0.0000
X 5.6123 0.0000 0.0000
X 5.6123 1.1225 0.0000
X 5.6123 2.2449 0.0000
X 5.6123 3.3674 0.0000
X 5.6123 4.4898 0.0000
X 5.6123 5.6123 0.0000
36
MD Step: 50   Time: 0.2500
X 0.0184 0.0184 0.0000
X 0.0336 1.1297 0.0000
X 0.0338 2.2462 0.0000
X 0.0338 3.3661 0.0000
X 0.0336 4.4826 0.0000
X 0.0184 5.5939 0.0000
X 1.1297 0.0336 0.0000
X 1.1353 1.1353 0.0000
X 1.1353 2.2470 0.0000
X 1.1353 3.3653 0.0000
X 1.1353 4.4770 0.0000
X 1.1297 5.5787 0.0000
X 2.2462 0.0338 0.0000
X 2.2470 1.1353 0.0000
X 2.2470 2.2470 0.0000
X 2.2470 3.3653 0.0000
X 2.2470 4.4770 0.0000
X 2.2462 5.5785 0.0000
X 3.3661 0.0338 0.0000
X 3.3653 1.1353 0.0000
X 3.3653 2.2470 0.0000
X 3.3653 3.3653 0.0000
X 3.3653 4.4770 0.0000
X 3.3661 5.5785 0.0000
X 4.4826 0.0336 0.0000
X 4.4770 1.1353 0.0000
X 4.4770 2.2470 0.0000
X 4.4770 3.3653 0.0000
X 4.4770 4.4770 0.0000
X 4.4826 5.5787 0.0000
X 5.5939 0.0184 0.0000
X 5.5787 1.1297 0.0000
X 5.5785 2.2462 0.0000
X 5.5785 3.3661 0.0000
X 5.5787 4.4826 0.0000
X 5.5939 5.5939 0.0000
36
MD Step: 100   Time: 0.5000
X 0.0449 0.0449 0.0000
X 0.0856 1.1533 0.0000
X 0.0841 2.2565 0.0000
X 0.0841 3.3558 0.0000
X 0.0856 4.4590 0.0000
X 0.0449 5.5674 0.0000
X 1.1533 0.0856 0.0000
X 1.1835 1.1835 0.0000
X 1.1824 2.2686 0.0000
X 1.1824 3.3437 0.0000
X 1.1835 4.4289 0.0000
X 1.1533 5.5267 0.0000
X 2.2565 0.0841 0.0000
X 2.2686 1.1824 0.0000
X 2.2681 2.2681 0.0000
X 2.2681 3.3442 0.0000
X 2.2686 4.4299 0.0000
X 2.2565 5.5282 0.0000
X 3.3558 0.0841 0.0000
X 3.3437 1.1824 0.0000
X 3.3442 2.2681 0.0000
X 3.3442 3.3442 0.0000
X 3.3437 4.4299 0.0000
X 3.3558 5.5282 0.0000
X 4.4590 0.0856 0.0000
X 4.4289 1.1835 0.0000
X 4.4299 2.2686 0.0000
X 4.4299 3.3437 0.0000
X 4.4289 4.4289 0.0000
X 4.4590 5.5267 0.0000
X 5.5674 0.0449 0.0000
X 5.5267 1.1533 0.0000
X 5.5282 2.2565 0.0000
X 5.5282 3.3558 0.0000
X 5.5267 4.4590 0.0000
X 5.5674 5.5674 0.0000
36
MD Step: 150   Time: 0.7500
X 0.0547 0.0547 0.0000
X 0.1164 1.1539 0.0000
X 0.1109 2.2544 0.0000
X 0.1109 3.3579 0.0000
X 0.1164 4.4584 0.0000
X 0.0547 5.5576 0.0000
X 1.1539 0.1164 0.0000
X 1.1943 1.1943 0.0000
X 1.1905 2.2687 0.0000
X 1.1905 3.3437 0.0000
X 1.1943 4.4180 0.0000
X 1.1539 5.4959 0.0000
X 2.2544 0.1109 0.0000
X 2.2687 1.1905 0.0000
X 2.2670 2.2670 0.0000
X 2.2670 3.3453 0.0000
X 2.2687 4.4219 0.0000
X 2.2544 5.5014 0.0000
X 3.3579 0.1109 0.0000
X 3.3437 1.1905 0.0000
X 3.3453 2.2670 0.0000
X 3.3453 3.3453 0.0000
X 3.3437 4.4219 0.0000
X 3.3579 5.5014 0.0000
X 4.4584 0.1164 0.0000
X 4.4180 1.1943 0.0000
X 4.4219 2.2687 0.0000
X 4.4219 3.3437 0.0000
X 4.4180 4.4180 0.0000
X 4.4584 5.4959 0.0000
X 5.5576 0.0547 0.0000
X 5.4959 1.1539 0.0000
X 5.5014 2.2544 0.0000
X 5.5014 3.3579 0.0000
X 5.4959 4.4584 0.0000
X 5.5576 5.5576 0.0000
36
MD Step: 200   Time: 1.0000
X 0.0222 0.0222 0.0000
X 0.0723 1.1371 0.0000
X 0.0606 2.2506 0.0000
X 0.0606 3.3617 0.0000
X 0.0723 4.4753 0.0000
X 0.0222 5.5901 0.0000
X 1.1371 0.0723 0.0000
X 1.1733 1.1733 0.0000
X 1.1657 2.2622 0.0000
X 1.1657 3.3501 0.0000
X 1.1733 4.4390 0.0000
X 1.1371 5.5400 0.0000
X 2.2506 0.0606 0.0000
X 2.2622 1.1657 0.0000
X 2.2595 2.2595 0.0000
X 2.2595 3.3528 0.0000
X 2.2622 4.4466 0.0000
X 2.2506 5.5517 0.0000
X 3.3617 0.0606 0.0000
X 3.3501 1.1657 0.0000
X 3.3528 2.2595 0.0000
X 3.3528 3.3528 0.0000
X 3.3501 4.4466 0.0000
X 3.3617 5.5517 0.0000
X 4.4753 0.0723 0.0000
X 4.4390 1.1733 0.0000
X 4.4466 2.2622 0.0000
X 4.4466 3.3501 0.0000
X 4.4390 4.4390 0.0000
X 4.4753 5.5400 0.0000
X 5.5901 0.0222 0.0000
X 5.5400 1.1371 0.0000
X 5.5517 2.2506 0.0000
X 5.5517 3.3617 0.0000
X 5.5400 4.4753 0.0000
X 5.5901 5.5901 0.0000
36
MD Step: 250   Time: 1.2500
X -0.0037 -0.0037 0.0000
X 0.0246 1.1138 0.0000
X 0.0156 2.2409 0.0000
X 0.0156 3.3715 0.0000
X 0.0246 4.4985 0.0000
X -0.0037 5.6160 0.0000
X 1.1138 0.0246 0.0000
X 1.1324 1.1324 0.0000
X 1.1231 2.2455 0.0000
X 1.1231 3.3668 0.0000
X 1.1324 4.4799 0.0000
X 1.1138 5.5877 0.0000
X 2.2409 0.0156 0.0000
X 2.2455 1.1231 0.0000
X 2.2419 2.2419 0.0000
X 2.2419 3.3704 0.0000
X 2.2455 4.4892 0.0000
X 2.2409 5.5967 0.0000
X 3.3715 0.0156 0.0000
X 3.3668 1.1231 0.0000
X 3.3704 2.2419 0.0000
X 3.3704 3.3704 0.0000
X 3.3668 4.4892 0.0000
X 3.3715 5.5967 0.0000
X 4.4985 0.0246 0.0000
X 4.4799 1.1324 0.0000
X 4.4892 2.2455 0.0000
X 4.4892 3.3668 0.0000
X 4.4799 4.4799 0.0000
X 4.4985 5.5877 0.0000
X 5.6160 -0.0037 0.0000
X 5.5877 1.1138 0.0000
X 5.5967 2.2409 0.0000
X 5.5967 3.3715 0.0000
X 5.5877 4.4985 0.0000
X 5.6160 5.6160 0.0000
36
MD Step: 300   Time: 1.5000
X -0.0022 -0.0022 0.0000
X 0.0115 1.1174 0.0000
X 0.0057 2.2411 0.0000
X 0.0057 3.3712 0.0000
X 0.0115 4.4949 0.0000
X -0.0022 5.6145 0.0000
X 1.1174 0.0115 0.0000
X 1.1270 1.1270 0.0000
X 1.1241 2.2487 0.0000
X 1.1241 3.3636 0.0000
X 1.1270 4.4853 0.0000
X 1.1174 5.6008 0.0000
X 2.2411 0.0057 0.0000
X 2.2487 1.1241 0.0000
X 2.2470 2.2470 0.0000
X 2.2470 3.3653 0.0000
X 2.2487 4.4882 0.0000
X 2.2411 5.6066 0.0000
X 3.3712 0.0057 0.0000
X 3.3636 1.1241 0.0000
X 3.3653 2.2470 0.0000
X 3.3653 3.3653 0.0000
X 3.3636 4.4882 0.0000
X 3.3712 5.6066 0.0000
X 4.4949 0.0115 0.0000
X 4.4853 1.1270 0.0000
X 4.4882 2.2487 0.0000
X 4.4882 3.3636 0.0000
X 4.4853 4.4853 0.0000
X 4.4949 5.6008 0.0000
X 5.6145 -0.0022 0.0000
X 5.6008 1.1174 0.0000
X 5.6066 2.2411 0.0000
X 5.6066 3.3712 0.0000
X 5.6008 4.4949 0.0000
X 5.6145 5.6145 0.0000
36
MD Step: 350   Time: 1.7500
X 0.0299 0.0299 0.0000
X 0.0526 1.1424 0.0000
X 0.0557 2.2530 0.0000
X 0.0557 3.3593 0.0000
X 0.0526 4.4699 0.0000
X 0.0299 5.5824 0.0000
X 1.1424 0.0526 0.0000
X 1.1529 1.1529 0.0000
X 1.1547 2.2510 0.0000
X 1.1547 3.3613 0.0000
X 1.1529 4.4594 0.0000
X 1.1424 5.5598 0.0000
X 2.2530 0.0557 0.0000
X 2.2510 1.1547 0.0000
X 2.2516 2.2516 0.0000
X 2.2516 3.3607 0.0000
X 2.2510 4.4576 0.0000
X 2.2530 5.5566 0.0000
X 3.3593 0.0557 0.0000
X 3.3613 1.1547 0.0000
X 3.3607 2.2516 0.0000
X 3.3607 3.3607 0.0000
X 3.3613 4.4576 0.0000
X 3.3593 5.5566 0.0000
X 4.4699 0.0526 0.0000
X 4.4594 1.1529 0.0000
X 4.4576 2.2510 0.0000
X 4.4576 3.3613 0.0000
X 4.4594 4.4594 0.0000
X 4.4699 5.5598 0.0000
X 5.5824 0.0299 0.0000
X 5.5598 1.1424 0.0000
X 5.5566 2.2530 0.0000
X 5.5566 3.3593 0.0000
X 5.5598 4.4699 0.0000
X 5.5824 5.5824 0.0000
36
MD Step: 400   Time: 2.0000
X 0.0641 0.0641 0.0000
X 0.0971 1.1625 0.0000
X 0.1031 2.2585 0.0000
X 0.1031 3.3538 0.0000
X 0.0971 4.4498 0.0000
X 0.0641 5.5482 0.0000
X 1.1625 0.0971 0.0000
X 1.1898 1.1898 0.0000
X 1.1938 2.2684 0.0000
X 1.1938 3.3440 0.0000
X 1.1898 4.4225 0.0000
X 1.1625 5.5152 0.0000
X 2.2585 0.1031 0.0000
X 2.2684 1.1938 0.0000
X 2.2710 2.2710 0.0000
X 2.2710 3.3413 0.0000
X 2.2684 4.4185 0.0000
X 2.2585 5.5092 0.0000
X 3.3538 0.1031 0.0000
X 3.3440 1.1938 0.0000
X 3.3413 2.2710 0.0000
X 3.3413 3.3413 0.0000
X 3.3440 4.4185 0.0000
X 3.3538 5.5092 0.0000
X 4.4498 0.0971 0.0000
X 4.4225 1.1898 0.0000
X 4.4185 2.2684 0.0000
X 4.4185 3.3440 0.0000
X 4.4225 4.4225 0.0000
X 4.4498 5.5152 0.0000
X 5.5482 0.0641 0.0000
X 5.5152 1.1625 0.0000
X 5.5092 2.2585 0.0000
X 5.5092 3.3538 0.0000
X 5.5152 4.4498 0.0000
X 5.5482 5.5482 0.0000
36
MD Step: 450   Time: 2.2500
X 0.0514 0.0514 0.0000
X 0.0984 1.1571 0.0000
X 0.0971 2.2562 0.0000
X 0.0971 3.3561 0.0000
X 0.0984 4.4552 0.0000
X 0.0514 5.5609 0.0000
X 1.1571 0.0984 0.0000
X 1.1859 1.1859 0.0000
X 1.1831 2.2682 0.0000
X 1.1831 3.3441 0.0000
X 1.1859 4.4264 0.0000
X 1.1571 5.5139 0.0000
X 2.2562 0.0971 0.0000
X 2.2682 1.1831 0.0000
X 2.2676 2.2676 0.0000
X 2.2676 3.3447 0.0000
X 2.2682 4.4292 0.0000
X 2.2562 5.5152 0.0000
X 3.3561 0.0971 0.0000
X 3.3441 1.1831 0.0000
X 3.3447 2.2676 0.0000
X 3.3447 3.3447 0.0000
X 3.3441 4.4292 0.0000
X 3.3561 5.5152 0.0000
X 4.4552 0.0984 0.0000
X 4.4264 1.1859 0.0000
X 4.4292 2.2682 0.0000
X 4.4292 3.3441 0.0000
X 4.4264 4.4264 0.0000
X 4.4552 5.5139 0.0000
X 5.5609 0.0514 0.0000
X 5.5139 1.1571 0.0000
X 5.5152 2.2562 0.0000
X 5.5152 3.3561 0.0000
X 5.5139 4.4552 0.0000
X 5.5609 5.5609 0.0000
36
MD Step: 500   Time: 2.5000
X 0.0110 0.0110 0.0000
X 0.0530 1.1250 0.0000
X 0.0382 2.2450 0.0000
X 0.0382 3.3673 0.0000
X 0.0530 4.4873 0.0000
X 0.0110 5.6013 0.0000
X 1.1250 0.0530 0.0000
X 1.1532 1.1532 0.0000
X 1.1449 2.2574 0.0000
X 1.1449 3.3550 0.0000
X 1.1532 4.4591 0.0000
X 1.1250 5.5594 0.0000
X 2.2450 0.0382 0.0000
X 2.2574 1.1449 0.0000
X 2.2539 2.2539 0.0000
X 2.2539 3.3584 0.0000
X 2.2574 4.4674 0.0000
X 2.2450 5.5741 0.0000
X 3.3673 0.0382 0.0000
X 3.3550 1.1449 0.0000
X 3.3584 2.2539 0.0000
X 3.3584 3.3584 0.0000
X 3.3550 4.4674 0.0000
X 3.3673 5.5741 0.0000
X 4.4873 0.0530 0.0000
X 4.4591 1.1532 0.0000
X 4.4674 2.2574 0.0000
X 4.4674 3.3550 0.0000
X 4.4591 4.4591 0.0000
X 4.4873 5.5594 0.0000
X 5.6013 0.0110 0.0000
X 5.5594 1.1250 0.0000
X 5.5741 2.2450 0.0000
X 5.5741 3.3673 0.0000
X 5.5594 4.4873 0.0000
X 5.6013 5.6013 0.0000
36
MD Step: 550   Time: 2.7500
X -0.0179 -0.0179 0.0000
X 0.0195 1.1070 0.0000
X 0.0045 2.2399 0.0000
X 0.0045 3.3724 0.0000
X 0.0195 4.5053 0.0000
X -0.0179 5.6302 0.0000
X 1.1070 0.0195 0.0000
X 1.1332 1.1332 0.0000
X 1.1188 2.2440 0.0000
X 1.1188 3.3683 0.0000
X 1.1332 4.4791 0.0000
X 1.1070 5.5928 0.0000
X 2.2399 0.0045 0.0000
X 2.2440 1.1188 0.0000
X 2.2373 2.2373 0.0000
X 2.2373 3.3750 0.0000
X 2.2440 4.4935 0.0000
X 2.2399 5.6078 0.0000
X 3.3724 0.0045 0.0000
X 3.3683 1.1188 0.0000
X 3.3750 2.2373 0.0000
X 3.3750 3.3750 0.0000
X 3.3683 4.4935 0.0000
X 3.3724 5.6078 0.0000
X 4.5053 0.0195 0.0000
X 4.4791 1.1332 0.0000
X 4.4935 2.2440 0.0000
X 4.4935 3.3683 0.0000
X 4.4791 4.4791 0.0000
X 4.5053 5.5928 0.0000
X 5.6302 -0.0179 0.0000
X 5.5928 1.1070 0.0000
X 5.6078 2.2399 0.0000
X 5.6078 3.3724 0.0000
X 5.5928 4.5053 0.0000
X 5.6302 5.6302 0.0000
36
MD Step: 600   Time: 3.0000
X -0.0022 -0.0022 0.0000
X 0.0331 1.1138 0.0000
X 0.0208 2.2388 0.0000
X 0.0208 3.3735 0.0000
X 0.0331 4.4985 0.0000
X -0.0022 5.6145 0.0000
X 1.1138 0.0331 0.0000
X 1.1407 1.1407 0.0000
X 1.1306 2.2528 0.0000
X 1.1306 3.3595 0.0000
X 1.1407 4.4716 0.0000
X 1.1138 5.5792 0.0000
X 2.2388 0.0208 0.0000
X 2.2528 1.1306 0.0000
X 2.2513 2.2513 0.0000
X 2.2513 3.3610 0.0000
X 2.2528 4.4817 0.0000
X 2.2388 5.5915 0.0000
X 3.3735 0.0208 0.0000
X 3.3595 1.1306 0.0000
X 3.3610 2.2513 0.0000
X 3.3610 3.3610 0.0000
X 3.3595 4.4817 0.0000
X 3.3735 5.5915 0.0000
X 4.4985 0.0331 0.0000
X 4.4716 1.1407 0.0000
X 4.4817 2.2528 0.0000
X 4.4817 3.3595 0.0000
X 4.4716 4.4716 0.0000
X 4.4985 5.5792 0.0000
X 5.6145 -0.0022 0.0000
X 5.5792 1.1138 0.0000
X 5.5915 2.2388 0.0000
X 5.5915 3.3735 0.0000
X 5.5792 4.4985 0.0000
X 5.6145 5.6145 0.0000
36
MD Step: 650   Time: 3.2500
X 0.0351 0.0351 0.0000
X 0.0804 1.1457 0.0000
X 0.0785 2.2555 0.0000
X 0.0785 3.3568 0.0000
X 0.0804 4.4666 0.0000
X 0.0351 5.5772 0.0000
X 1.1457 0.0804 0.0000
X 1.1725 1.1725 0.0000
X 1.1734 2.2636 0.0000
X 1.1734 3.3487 0.0000
X 1.1725 4.4398 0.0000
X 1.1457 5.5320 0.0000
X 2.2555 0.0785 0.0000
X 2.2636 1.1734 0.0000
X 2.2599 2.2599 0.0000
X 2.2599 3.3524 0.0000
X 2.2636 4.4389 0.0000
X 2.2555 5.5338 0.0000
X 3.3568 0.0785 0.0000
X 3.3487 1.1734 0.0000
X 3.3524 2.2599 0.0000
X 3.3524 3.3524 0.0000
X 3.3487 4.4389 0.0000
X 3.3568 5.5338 0.0000
X 4.4666 0.0804 0.0000
X 4.4398 1.1725 0.0000
X 4.4389 2.2636 0.0000
X 4.4389 3.3487 0.0000
X 4.4398 4.4398 0.0000
X 4.4666 5.5320 0.0000
X 5.5772 0.0351 0.0000
X 5.5320 1.1457 0.0000
X 5.5338 2.2555 0.0000
X 5.5338 3.3568 0.0000
X 5.5320 4.4666 0.0000
X 5.5772 5.5772 0.0000
36
MD Step: 700   Time: 3.5000
X 0.0664 0.0664 0.0000
X 0.1053 1.1636 0.0000
X 0.1104 2.2571 0.0000
X 0.1104 3.3552 0.0000
X 0.1053 4.4487 0.0000
X 0.0664 5.5459 0.0000
X 1.1636 0.1053 0.0000
X 1.1921 1.1921 0.0000
X 1.1986 2.2674 0.0000
X 1.1986 3.3449 0.0000
X 1.1921 4.4202 0.0000
X 1.1636 5.5070 0.0000
X 2.2571 0.1104 0.0000
X 2.2674 1.1986 0.0000
X 2.2680 2.2680 0.0000
X 2.2680 3.3443 0.0000
X 2.2674 4.4137 0.0000
X 2.2571 5.5019 0.0000
X 3.3552 0.1104 0.0000
X 3.3449 1.1986 0.0000
X 3.3443 2.2680 0.0000
X 3.3443 3.3443 0.0000
X 3.3449 4.4137 0.0000
X 3.3552 5.5019 0.0000
X 4.4487 0.1053 0.0000
X 4.4202 1.1921 0.0000
X 4.4137 2.2674 0.0000
X 4.4137 3.3449 0.0000
X 4.4202 4.4202 0.0000
X 4.4487 5.5070 0.0000
X 5.5459 0.0664 0.0000
X 5.5070 1.1636 0.0000
X 5.5019 2.2571 0.0000
X 5.5019 3.3552 0.0000
X 5.5070 4.4487 0.0000
X 5.5459 5.5459 0.0000
36
MD Step: 750   Time: 3.7500
X 0.0449 0.0449 0.0000
X 0.0715 1.1553 0.0000
X 0.0747 2.2559 0.0000
X 0.0747 3.3564 0.0000
X 0.0715 4.4571 0.0000
X 0.0449 5.5674 0.0000
X 1.1553 0.0715 0.0000
X 1.1738 1.1738 0.0000
X 1.1715 2.2598 0.0000
X 1.1715 3.3526 0.0000
X 1.1738 4.4385 0.0000
X 1.1553 5.5408 0.0000
X 2.2559 0.0747 0.0000
X 2.2598 1.1715 0.0000
X 2.2596 2.2596 0.0000
X 2.2596 3.3527 0.0000
X 2.2598 4.4408 0.0000
X 2.2559 5.5376 0.0000
X 3.3564 0.0747 0.0000
X 3.3526 1.1715 0.0000
X 3.3527 2.2596 0.0000
X 3.3527 3.3527 0.0000
X 3.3526 4.4408 0.0000
X 3.3564 5.5376 0.0000
X 4.4571 0.0715 0.0000
X 4.4385 1.1738 0.0000
X 4.4408 2.2598 0.0000
X 4.4408 3.3526 0.0000
X 4.4385 4.4385 0.0000
X 4.4571 5.5408 0.0000
X 5.5674 0.0449 0.0000
X 5.5408 1.1553 0.0000
X 5.5376 2.2559 0.0000
X 5.5376 3.3564 0.0000
X 5.5408 4.4571 0.0000
X 5.5674 5.5674 0.0000
36
MD Step: 800   Time: 4.0000
X 0.0101 0.0101 0.0000
X 0.0283 1.1225 0.0000
X 0.0189 2.2456 0.0000
X 0.0189 3.3667 0.0000
X 0.0283 4.4899 0.0000
X 0.0101 5.6022 0.0000
X 1.1225 0.0283 0.0000
X 1.1339 1.1339 0.0000
X 1.1278 2.2488 0.0000
X 1.1278 3.3635 0.0000
X 1.1339 4.4784 0.0000
X 1.1225 5.5840 0.0000
X 2.2456 0.0189 0.0000
X 2.2488 1.1278 0.0000
X 2.2501 2.2501 0.0000
X 2.2501 3.3622 0.0000
X 2.2488 4.4846 0.0000
X 2.2456 5.5935 0.0000
X 3.3667 0.0189 0.0000
X 3.3635 1.1278 0.0000
X 3.3622 2.2501 0.0000
X 3.3622 3.3622 0.0000
X 3.3635 4.4846 0.0000
X 3.3667 5.5935 0.0000
X 4.4899 0.0283 0.0000
X 4.4784 1.1339 0.0000
X 4.4846 2.2488 0.0000
X 4.4846 3.3635 0.0000
X 4.4784 4.4784 0.0000
X 4.4899 5.5840 0.0000
X 5.6022 0.0101 0.0000
X 5.5840 1.1225 0.0000
X 5.5935 2.2456 0.0000
X 5.5935 3.3667 0.0000
X 5.5840 4.4899 0.0000
X 5.6022 5.6022 0.0000
36
MD Step: 850   Time: 4.2500
X -0.0102 -0.0102 0.0000
X 0.0157 1.1142 0.0000
X 0.0031 2.2394 0.0000
X 0.0031 3.3729 0.0000
X 0.0157 4.4981 0.0000
X -0.0102 5.6226 0.0000
X 1.1142 0.0157 0.0000
X 1.1273 1.1273 0.0000
X 1.1193 2.2451 0.0000
X 1.1193 3.3673 0.0000
X 1.1273 4.4850 0.0000
X 1.1142 5.5966 0.0000
X 2.2394 0.0031 0.0000
X 2.2451 1.1193 0.0000
X 2.2374 2.2374 0.0000
X 2.2374 3.3749 0.0000
X 2.2451 4.4931 0.0000
X 2.2394 5.6092 0.0000
X 3.3729 0.0031 0.0000
X 3.3673 1.1193 0.0000
X 3.3749 2.2374 0.0000
X 3.3749 3.3749 0.0000
X 3.3673 4.4931 0.0000
X 3.3729 5.6092 0.0000
X 4.4981 0.0157 0.0000
X 4.4850 1.1273 0.0000
X 4.4931 2.2451 0.0000
X 4.4931 3.3673 0.0000
X 4.4850 4.4850 0.0000
X 4.4981 5.5966 0.0000
X 5.6226 -0.0102 0.0000
X 5.5966 1.1142 0.0000
X 5.6092 2.2394 0.0000
X 5.6092 3.3729 0.0000
X 5.5966 4.4981 0.0000
X 5.6226 5.6226 0.0000
36
MD Step: 900   Time: 4.5000
X 0.0101 0.0101 0.0000
X 0.0495 1.1239 0.0000
X 0.0405 2.2465 0.0000
X 0.0405 3.3658 0.0000
X 0.0495 4.4884 0.0000
X 0.0101 5.6022 0.0000
X 1.1239 0.0495 0.0000
X 1.1567 1.1567 0.0000
X 1.1454 2.2542 0.0000
X 1.1454 3.3581 0.0000
X 1.1567 4.4556 0.0000
X 1.1239 5.5628 0.0000
X 2.2465 0.0405 0.0000
X 2.2542 1.1454 0.0000
X 2.2544 2.2544 0.0000
X 2.2544 3.3579 0.0000
X 2.2542 4.4669 0.0000
X 2.2465 5.5718 0.0000
X 3.3658 0.0405 0.0000
X 3.3581 1.1454 0.0000
X 3.3579 2.2544 0.0000
X 3.3579 3.3579 0.0000
X 3.3581 4.4669 0.0000
X 3.3658 5.5718 0.0000
X 4.4884 0.0495 0.0000
X 4.4556 1.1567 0.0000
X 4.4669 2.2542 0.0000
X 4.4669 3.3581 0.0000
X 4.4556 4.4556 0.0000
X 4.4884 5.5628 0.0000
X 5.6022 0.0101 0.0000
X 5.5628 1.1239 0.0000
X 5.5718 2.2465 0.0000
X 5.5718 3.3658 0.0000
X 5.5628 4.4884 0.0000
X 5.6022 5.6022 0.0000
36
MD Step: 950   Time: 4.7500
X 0.0440 0.0440 0.0000
X 0.1025 1.1487 0.0000
X 0.0991 2.2540 0.0000
X 0.0991 3.3583 0.0000
X 0.1025 4.4636 0.0000
X 0.0440 5.5683 0.0000
X 1.1487 0.1025 0.0000
X 1.1882 1.1882 0.0000
X 1.1853 2.2694 0.0000
X 1.1853 3.3429 0.0000
X 1.1882 4.4241 0.0000
X 1.1487 5.5098 0.0000
X 2.2540 0.0991 0.0000
X 2.2694 1.1853 0.0000
X 2.2692 2.2692 0.0000
X 2.2692 3.3431 0.0000
X 2.2694 4.4270 0.0000
X 2.2540 5.5132 0.0000
X 3.3583 0.0991 0.0000
X 3.3429 1.1853 0.0000
X 3.3431 2.2692 0.0000
X 3.3431 3.3431 0.0000
X 3.3429 4.4270 0.0000
X 3.3583 5.5132 0.0000
X 4.4636 0.1025 0.0000
X 4.4241 1.1882 0.0000
X 4.4270 2.2694 0.0000
X 4.4270 3.3429 0.0000
X 4.4241 4.4241 0.0000
X 4.4636 5.5098 0.0000
X 5.5683 0.0440 0.0000
X 5.5098 1.1487 0.0000
X 5.5132 2.2540 0.0000
X 5.5132 3.3583 0.0000
X 5.5098 4.4636 0.0000
X 5.5683 5.5683 0.0000
36
MD Step: 1000   Time: 5.0000
X 0.0535 0.0535 0.0000
X 0.1059 1.1582 0.0000
X 0.1041 2.2548 0.0000
X 0.1041 3.3575 0.0000
X 0.1059 4.4541 0.0000
X 0.0535 5.5588 0.0000
X 1.1582 0.1059 0.0000
X 1.1888 1.1888 0.0000
X 1.1924 2.2705 0.0000
X 1.1924 3.3418 0.0000
X 1.1888 4.4235 0.0000
X 1.1582 5.5064 0.0000
X 2.2548 0.1041 0.0000
X 2.2705 1.1924 0.0000
X 2.2700 2.2700 0.0000
X 2.2700 3.3423 0.0000
X 2.2705 4.4199 0.0000
X 2.2548 5.5082 0.0000
X 3.3575 0.1041 0.0000
X 3.3418 1.1924 0.0000
X 3.3423 2.2700 0.0000
X 3.3423 3.3423 0.0000
X 3.3418 4.4199 0.0000
X 3.3575 5.5082 0.0000
X 4.4541 0.1059 0.0000
X 4.4235 1.1888 0.0000
X 4.4199 2.2705 0.0000
X 4.4199 3.3418 0.0000
X 4.4235 4.4235 0.0000
X 4.4541 5.5064 0.0000
X 5.5588 0.0535 0.0000
X 5.5064 1.1582 0.0000
X 5.5082 2.2548 0.0000
X 5.5082 3.3575 0.0000
X 5.5064 4.4541 0.0000
X 5.5588 5.5588 0.0000
36
MD Step: 1050   Time: 5.2500
X 0.0303 0.0303 0.0000
X 0.0517 1.1400 0.0000
X 0.0512 2.2522 0.0000
X 0.0512 3.3601 0.0000
X 0.0517 4.4723 0.0000
X 0.0303 5.5820 0.0000
X 1.1400 0.0517 0.0000
X 1.1566 1.1566 0.0000
X 1.1542 2.2581 0.0000
X 1.1542 3.3542 0.0000
X 1.1566 4.4557 0.0000
X 1.1400 5.5607 0.0000
X 2.2522 0.0512 0.0000
X 2.2581 1.1542 0.0000
X 2.2513 2.2513 0.0000
X 2.2513 3.3610 0.0000
X 2.2581 4.4581 0.0000
X 2.2522 5.5611 0.0000
X 3.3601 0.0512 0.0000
X 3.3542 1.1542 0.0000
X 3.3610 2.2513 0.0000
X 3.3610 3.3610 0.0000
X 3.3542 4.4581 0.0000
X 3.3601 5.5611 0.0000
X 4.4723 0.0517 0.0000
X 4.4557 1.1566 0.0000
X 4.4581 2.2581 0.0000
X 4.4581 3.3542 0.0000
X 4.4557 4.4557 0.0000
X 4.4723 5.5607 0.0000
X 5.5820 0.0303 0.0000
X 5.5607 1.1400 0.0000
X 5.5611 2.2522 0.0000
X 5.5611 3.3601 0.0000
X 5.5607 4.4723 0.0000
X 5.5820 5.5820 0.0000
36
MD Step: 1100   Time: 5.5000
X 0.0048 0.0048 0.0000
X 0.0114 1.1235 0.0000
X 0.0045 2.2452 0.0000
X 0.0045 3.3671 0.0000
X 0.0114 4.4889 0.0000
X 0.0048 5.6075 0.0000
X 1.1235 0.0114 0.0000
X 1.1250 1.1250 0.0000
X 1.1198 2.2406 0.0000
X 1.1198 3.3717 0.0000
X 1.1250 4.4873 0.0000
X 1.1235 5.6009 0.0000
X 2.2452 0.0045 0.0000
X 2.2406 1.1198 0.0000
X 2.2450 2.2450 0.0000
X 2.2450 3.3673 0.0000
X 2.2406 4.4925 0.0000
X 2.2452 5.6078 0.0000
X 3.3671 0.0045 0.0000
X 3.3717 1.1198 0.0000
X 3.3673 2.2450 0.0000
X 3.3673 3.3673 0.0000
X 3.3717 4.4925 0.0000
X 3.3671 5.6078 0.0000
X 4.4889 0.0114 0.0000
X 4.4873 1.1250 0.0000
X 4.4925 2.2406 0.0000
X 4.4925 3.3717 0.0000
X 4.4873 4.4873 0.0000
X 4.4889 5.6009 0.0000
X 5.6075 0.0048 0.0000
X 5.6009 1.1235 0.0000
X 5.6078 2.2452 0.0000
X 5.6078 3.3671 0.0000
X 5.6009 4.4889 0.0000
X 5.6075 5.6075 0.0000
36
MD Step: 1150   Time: 5.7500
X 0.0079 0.0079 0.0000
X 0.0178 1.1246 0.0000
X 0.0125 2.2427 0.0000
X 0.0125 3.3696 0.0000
X 0.0178 4.4877 0.0000
X 0.0079 5.6044 0.0000
X 1.1246 0.0178 0.0000
X 1.1260 1.1260 0.0000
X 1.1233 2.2471 0.0000
X 1.1233 3.3653 0.0000
X 1.1260 4.4863 0.0000
X 1.1246 5.5945 0.0000
X 2.2427 0.0125 0.0000
X 2.2471 1.1233 0.0000
X 2.2430 2.2430 0.0000
X 2.2430 3.3693 0.0000
X 2.2471 4.4890 0.0000
X 2.2427 5.5998 0.0000
X 3.3696 0.0125 0.0000
X 3.3653 1.1233 0.0000
X 3.3693 2.2430 0.0000
X 3.3693 3.3693 0.0000
X 3.3653 4.4890 0.0000
X 3.3696 5.5998 0.0000
X 4.4877 0.0178 0.0000
X 4.4863 1.1260 0.0000
X 4.4890 2.2471 0.0000
X 4.4890 3.3653 0.0000
X 4.4863 4.4863 0.0000
X 4.4877 5.5945 0.0000
X 5.6044 0.0079 0.0000
X 5.5945 1.1246 0.0000
X 5.5998 2.2427 0.0000
X 5.5998 3.3696 0.0000
X 5.5945 4.4877 0.0000
X 5.6044 5.6044 0.0000
36
MD Step: 1200   Time: 6.0000
X 0.0330 0.0330 0.0000
X 0.0634 1.1429 0.0000
X 0.0626 2.2551 0.0000
X 0.0626 3.3572 0.0000
X 0.0634 4.4695 0.0000
X 0.0330 5.5793 0.0000
X 1.1429 0.0634 0.0000
X 1.1668 1.1668 0.0000
X 1.1656 2.2594 0.0000
X 1.1656 3.3529 0.0000
X 1.1668 4.4455 0.0000
X 1.1429 5.5489 0.0000
X 2.2551 0.0626 0.0000
X 2.2594 1.1656 0.0000
X 2.2577 2.2577 0.0000
X 2.2577 3.3546 0.0000
X 2.2594 4.4467 0.0000
X 2.2551 5.5498 0.0000
X 3.3572 0.0626 0.0000
X 3.3529 1.1656 0.0000
X 3.3546 2.2577 0.0000
X 3.3546 3.3546 0.0000
X 3.3529 4.4467 0.0000
X 3.3572 5.5498 0.0000
X 4.4695 0.0634 0.0000
X 4.4455 1.1668 0.0000
X 4.4467 2.2594 0.0000
X 4.4467 3.3529 0.0000
X 4.4455 4.4455 0.0000
X 4.4695 5.5489 0.0000
X 5.5793 0.0330 0.0000
X 5.5489 1.1429 0.0000
X 5.5498 2.2551 0.0000
X 5.5498 3.3572 0.0000
X 5.5489 4.4695 0.0000
X 5.5793 5.5793 0.0000
36
MD Step: 1250   Time: 6.2500
X 0.0546 0.0546 0.0000
X 0.1102 1.1554 0.0000
X 0.1120 2.2541 0.0000
X 0.1120 3.3583 0.0000
X 0.1102 4.4569 0.0000
X 0.0546 5.5577 0.0000
X 1.1554 0.1102 0.0000
X 1.1962 1.1962 0.0000
X 1.1937 2.2685 0.0000
X 1.1937 3.3438 0.0000
X 1.1962 4.4161 0.0000
X 1.1554 5.5021 0.0000
X 2.2541 0.1120 0.0000
X 2.2685 1.1937 0.0000
X 2.2693 2.2693 0.0000
X 2.2693 3.3430 0.0000
X 2.2685 4.4186 0.0000
X 2.2541 5.5003 0.0000
X 3.3583 0.1120 0.0000
X 3.3438 1.1937 0.0000
X 3.3430 2.2693 0.0000
X 3.3430 3.3430 0.0000
X 3.3438 4.4186 0.0000
X 3.3583 5.5003 0.0000
X 4.4569 0.1102 0.0000
X 4.4161 1.1962 0.0000
X 4.4186 2.2685 0.0000
X 4.4186 3.3438 0.0000
X 4.4161 4.4161 0.0000
X 4.4569 5.5021 0.0000
X 5.5577 0.0546 0.0000
X 5.5021 1.1554 0.0000
X 5.5003 2.2541 0.0000
X 5.5003 3.3583 0.0000
X 5.5021 4.4569 0.0000
X 5.5577 5.5577 0.0000
36
MD Step: 1300   Time: 6.5000
X 0.0363 0.0363 0.0000
X 0.0957 1.1471 0.0000
X 0.0867 2.2525 0.0000
X 0.0867 3.3598 0.0000
X 0.0957 4.4652 0.0000
X 0.0363 5.5760 0.0000
X 1.1471 0.0957 0.0000
X 1.1832 1.1832 0.0000
X 1.1807 2.2639 0.0000
X 1.1807 3.3484 0.0000
X 1.1832 4.4291 0.0000
X 1.1471 5.5166 0.0000
X 2.2525 0.0867 0.0000
X 2.2639 1.1807 0.0000
X 2.2682 2.2682 0.0000
X 2.2682 3.3441 0.0000
X 2.2639 4.4316 0.0000
X 2.2525 5.5256 0.0000
X 3.3598 0.0867 0.0000
X 3.3484 1.1807 0.0000
X 3.3441 2.2682 0.0000
X 3.3441 3.3441 0.0000
X 3.3484 4.4316 0.0000
X 3.3598 5.5256 0.0000
X 4.4652 0.0957 0.0000
X 4.4291 1.1832 0.0000
X 4.4316 2.2639 0.0000
X 4.4316 3.3484 0.0000
X 4.4291 4.4291 0.0000
X 4.4652 5.5166 0.0000
X 5.5760 0.0363 0.0000
X 5.5166 1.1471 0.0000
X 5.5256 2.2525 0.0000
X 5.5256 3.3598 0.0000
X 5.5166 4.4652 0.0000
X 5.5760 5.5760 0.0000
36
MD Step: 1350   Time: 6.7500
X 0.0077 0.0077 0.0000
X 0.0381 1.1199 0.0000
X 0.0305 2.2452 0.0000
X 0.0306 3.3671 0.0000
X 0.0381 4.4924 0.0000
X 0.0077 5.6046 0.0000
X 1.1199 0.0381 0.0000
X 1.1479 1.1479 0.0000
X 1.1350 2.2563 0.0000
X 1.1351 3.3560 0.0000
X 1.1479 4.4644 0.0000
X 1.1199 5.5742 0.0000
X 2.2452 0.0305 0.0000
X 2.2563 1.1350 0.0000
X 2.2478 2.2478 0.0000
X 2.2479 3.3645 0.0000
X 2.2563 4.4773 0.0000
X 2.2452 5.5817 0.0000
X 3.3671 0.0306 0.0000
X 3.3560 1.1351 0.0000
X 3.3645 2.2479 0.0000
X 3.3645 3.3645 0.0000
X 3.3560 4.4773 0.0000
X 3.3671 5.5818 0.0000
X 4.4924 0.0381 0.0000
X 4.4644 1.1479 0.0000
X 4.4773 2.2563 0.0000
X 4.4773 3.3560 0.0000
X 4.4644 4.4644 0.0000
X 4.4924 5.5742 0.0000
X 5.6046 0.0077 0.0000
X 5.5742 1.1199 0.0000
X 5.5817 2.2452 0.0000
X 5.5818 3.3671 0.0000
X 5.5742 4.4924 0.0000
X 5.6046 5.6046 0.0000
36
MD Step: 1400   Time: 7.0000
X -0.0074 -0.0074 0.0000
X 0.0139 1.1177 0.0000
X -0.0012 2.2405 0.0000
X -0.0011 3.3718 0.0000
X 0.0139 4.4946 0.0000
X -0.0074 5.6197 0.0000
X 1.1177 0.0139 0.0000
X 1.1240 1.1240 0.0000
X 1.1189 2.2423 0.0000
X 1.1189 3.3700 0.0000
X 1.1240 4.4883 0.0000
X 1.1177 5.5984 0.0000
X 2.2405 -0.0012 0.0000
X 2.2423 1.1189 0.0000
X 2.2407 2.2407 0.0000
X 2.2407 3.3716 0.0000
X 2.2423 4.4934 0.0000
X 2.2405 5.6134 0.0000
X 3.3718 -0.0011 0.0000
X 3.3700 1.1189 0.0000
X 3.3716 2.2407 0.0000
X 3.3716 3.3716 0.0000
X 3.3700 4.4934 0.0000
X 3.3718 5.6135 0.0000
X 4.4946 0.0139 0.0000
X 4.4883 1.1240 0.0000
X 4.4934 2.2423 0.0000
X 4.4934 3.3700 0.0000
X 4.4883 4.4883 0.0000
X 4.4947 5.5984 0.0000
X 5.6197 -0.0074 0.0000
X 5.5984 1.1177 0.0000
X 5.6134 2.2405 0.0000
X 5.6135 3.3718 0.0000
X 5.5984 4.4947 0.0000
X 5.6197 5.6197 0.0000
36
MD Step: 1450   Time: 7.2500
X 0.0186 0.0186 0.0000
X 0.0321 1.1296 0.0000
X 0.0299 2.2482 0.0000
X 0.0300 3.3640 0.0000
X 0.0320 4.4827 0.0000
X 0.0186 5.5937 0.0000
X 1.1296 0.0321 0.0000
X 1.1418 1.1418 0.0000
X 1.1341 2.2501 0.0000
X 1.1342 3.3622 0.0000
X 1.1417 4.4705 0.0000
X 1.1297 5.5803 0.0000
X 2.2482 0.0299 0.0000
X 2.2501 1.1341 0.0000
X 2.2499 2.2499 0.0000
X 2.2500 3.3623 0.0000
X 2.2501 4.4782 0.0000
X 2.2483 5.5823 0.0000
X 3.3640 0.0300 0.0000
X 3.3622 1.1342 0.0000
X 3.3623 2.2500 0.0000
X 3.3624 3.3624 0.0000
X 3.3621 4.4782 0.0000
X 3.3641 5.5824 0.0000
X 4.4827 0.0320 0.0000
X 4.4705 1.1417 0.0000
X 4.4782 2.2501 0.0000
X 4.4782 3.3621 0.0000
X 4.4705 4.4705 0.0000
X 4.4827 5.5802 0.0000
X 5.5937 0.0186 0.0000
X 5.5803 1.1297 0.0000
X 5.5823 2.2483 0.0000
X 5.5824 3.3641 0.0000
X 5.5802 4.4827 0.0000
X 5.5937 5.5937 0.0000
36
MD Step: 1500   Time: 7.5000
X 0.0526 0.0526 0.0000
X 0.0832 1.1581 0.0000
X 0.0860 2.2585 0.0000
X 0.0862 3.3538 0.0000
X 0.0830 4.4542 0.0000
X 0.0527 5.5597 0.0000
X 1.1581 0.0832 0.0000
X 1.1758 1.1758 0.0000
X 1.1814 2.2636 0.0000
X 1.1816 3.3488 0.0000
X 1.1756 4.4366 0.0000
X 1.1581 5.5293 0.0000
X 2.2585 0.0860 0.0000
X 2.2636 1.1814 0.0000
X 2.2653 2.2653 0.0000
X 2.2655 3.3469 0.0000
X 2.2635 4.4307 0.0000
X 2.2585 5.5262 0.0000
X 3.3538 0.0862 0.0000
X 3.3488 1.1816 0.0000
X 3.3469 2.2655 0.0000
X 3.3471 3.3471 0.0000
X 3.3486 4.4309 0.0000
X 3.3539 5.5263 0.0000
X 4.4542 0.0830 0.0000
X 4.4366 1.1756 0.0000
X 4.4307 2.2635 0.0000
X 4.4309 3.3486 0.0000
X 4.4365 4.4365 0.0000
X 4.4543 5.5291 0.0000
X 5.5597 0.0527 0.0000
X 5.5293 1.1581 0.0000
X 5.5262 2.2585 0.0000
X 5.5264 3.3539 0.0000
X 5.5291 4.4543 0.0000
X 5.5597 5.5597 0.0000
36
MD Step: 1550   Time: 7.7500
X 0.0613 0.0613 0.0000
X 0.1036 1.1616 0.0000
X 0.1118 2.2550 0.0000
X 0.1123 3.3572 0.0000
X 0.1032 4.4506 0.0000
X 0.0615 5.5509 0.0000
X 1.1616 0.1036 0.0000
X 1.1936 1.1936 0.0000
X 1.1952 2.2718 0.0000
X 1.1959 3.3408 0.0000
X 1.1931 4.4190 0.0000
X 1.1617 5.5090 0.0000
X 2.2550 0.1118 0.0000
X 2.2718 1.1952 0.0000
X 2.2670 2.2670 0.0000
X 2.2677 3.3447 0.0000
X 2.2714 4.4165 0.0000
X 2.2552 5.5000 0.0000
X 3.3572 0.1123 0.0000
X 3.3408 1.1959 0.0000
X 3.3447 2.2676 0.0000
X 3.3454 3.3454 0.0000
X 3.3403 4.4171 0.0000
X 3.3574 5.5006 0.0000
X 4.4506 0.1032 0.0000
X 4.4190 1.1931 0.0000
X 4.4165 2.2714 0.0000
X 4.4171 3.3403 0.0000
X 4.4186 4.4186 0.0000
X 4.4508 5.5086 0.0000
X 5.5509 0.0615 0.0000
X 5.5090 1.1617 0.0000
X 5.5000 2.2552 0.0000
X 5.5006 3.3574 0.0000
X 5.5086 4.4508 0.0000
X 5.5510 5.5510 0.0000
36
MD Step: 1600   Time: 8.0000
X 0.0243 0.0243 0.0000
X 0.0749 1.1378 0.0000
X 0.0627 2.2515 0.0000
X 0.0646 3.3604 0.0000
X 0.0736 4.4742 0.0000
X 0.0247 5.5878 0.0000
X 1.1378 0.0749 0.0000
X 1.1655 1.1655 0.0000
X 1.1657 2.2586 0.0000
X 1.1678 3.3548 0.0000
X 1.1641 4.4478 0.0000
X 1.1383 5.5384 0.0000
X 2.2515 0.0627 0.0000
X 2.2586 1.1657 0.0000
X 2.2575 2.2575 0.0000
X 2.2597 3.3528 0.0000
X 2.2571 4.4447 0.0000
X 2.2521 5.5479 0.0000
X 3.3604 0.0646 0.0000
X 3.3548 1.1678 0.0000
X 3.3528 2.2597 0.0000
X 3.3550 3.3550 0.0000
X 3.3533 4.4468 0.0000
X 3.3610 5.5497 0.0000
X 4.4742 0.0736 0.0000
X 4.4478 1.1641 0.0000
X 4.4447 2.2571 0.0000
X 4.4468 3.3533 0.0000
X 4.4464 4.4464 0.0000
X 4.4747 5.5370 0.0000
X 5.5877 0.0247 0.0000
X 5.5384 1.1383 0.0000
X 5.5479 2.2521 0.0000
X 5.5498 3.3610 0.0000
X 5.5370 4.4747 0.0000
X 5.5882 5.5882 0.0000
36
MD Step: 1650   Time: 8.2500
X -0.0090 -0.0090 0.0000
X 0.0259 1.1085 0.0000
X 0.0117 2.2384 0.0000
X 0.0169 3.3727 0.0000
X 0.0222 4.5028 0.0000
X -0.0077 5.6204 0.0000
X 1.1085 0.0259 0.0000
X 1.1435 1.1435 0.0000
X 1.1196 2.2529 0.0000
X 1.1252 3.3624 0.0000
X 1.1396 4.4718 0.0000
X 1.1099 5.5893 0.0000
X 2.2384 0.0117 0.0000
X 2.2529 1.1197 0.0000
X 2.2426 2.2426 0.0000
X 2.2484 3.3644 0.0000
X 2.2490 4.4876 0.0000
X 2.2400 5.5959 0.0000
X 3.3727 0.0169 0.0000
X 3.3624 1.1252 0.0000
X 3.3644 2.2484 0.0000
X 3.3702 3.3702 0.0000
X 3.3585 4.4931 0.0000
X 3.3743 5.6010 0.0000
X 4.5028 0.0222 0.0000
X 4.4718 1.1396 0.0000
X 4.4876 2.2490 0.0000
X 4.4931 3.3585 0.0000
X 4.4679 4.4679 0.0000
X 4.5043 5.5855 0.0000
X 5.6204 -0.0078 0.0000
X 5.5893 1.1099 0.0000
X 5.5959 2.2400 0.0000
X 5.6010 3.3743 0.0000
X 5.5855 4.5043 0.0000
X 5.6217 5.6217 0.0000
36
MD Step: 1700   Time: 8.5000
X -0.0146 -0.0146 0.0000
X 0.0304 1.1091 0.0000
X -0.0005 2.2373 0.0000
X 0.0111 3.3721 0.0000
X 0.0218 4.5007 0.0000
X -0.0116 5.6247 0.0000
X 1.1091 0.0304 0.0000
X 1.1342 1.1342 0.0000
X 1.1159 2.2493 0.0000
X 1.1284 3.3699 0.0000
X 1.1253 4.4851 0.0000
X 1.1125 5.5888 0.0000
X 2.2373 -0.0005 0.0000
X 2.2493 1.1159 0.0000
X 2.2349 2.2350 0.0000
X 2.2479 3.3654 0.0000
X 2.2405 4.4849 0.0000
X 2.2412 5.6022 0.0000
X 3.3721 0.0110 0.0000
X 3.3699 1.1284 0.0000
X 3.3654 2.2479 0.0000
X 3.3784 3.3784 0.0000
X 3.3611 4.4973 0.0000
X 3.3760 5.6137 0.0000
X 4.5007 0.0218 0.0000
X 4.4851 1.1254 0.0000
X 4.4849 2.2405 0.0000
X 4.4974 3.3611 0.0000
X 4.4762 4.4762 0.0000
X 4.5041 5.5800 0.0000
X 5.6247 -0.0116 0.0000